# vtk DataFile Version 2.0
Unstructured Grid Example
ASCII
DATASET UNSTRUCTURED_GRID

POINTS 961 float
0.100000001 0.00499999989 0
0.0966666639 0.00499999989 0
0.0933333337 0.00499999989 0
0.0900000036 0.00499999989 0
0.086666666 0.00499999989 0
0.0833333358 0.00499999989 0
0.0799999982 0.00499999989 0
0.0766666681 0.00499999989 0
0.0733333305 0.00499999989 0
0.0700000003 0.00499999989 0
0.0666666701 0.00499999989 0
0.0633333325 0.00499999989 0
0.0599999987 0.00499999989 0
0.0566666685 0.00499999989 0
0.0533333346 0.00499999989 0
0.0500000007 0.00499999989 0
0.0466666669 0.00499999989 0
0.043333333 0.00499999989 0
0.0399999991 0.00499999989 0
0.0366666652 0.00499999989 0
0.0333333351 0.00499999989 0
0.0299999993 0.00499999989 0
0.0266666673 0.00499999989 0
0.0233333334 0.00499999989 0
0.0199999996 0.00499999989 0
0.0166666675 0.00499999989 0
0.0133333337 0.00499999989 0
0.00999999978 0.00499999989 0
0.00666666683 0.00499999989 0
0.00333333341 0.00499999989 0
0.0 0.00499999989 0
0.100000001 0.00166666671 0
0.0966666639 0.00166666671 0
0.0933333337 0.00166666671 0
0.0900000036 0.00166666671 0
0.086666666 0.00166666671 0
0.0833333358 0.00166666671 0
0.0799999982 0.00166666671 0
0.0766666681 0.00166666671 0
0.0733333305 0.00166666671 0
0.0700000003 0.00166666671 0
0.0666666701 0.00166666671 0
0.0633333325 0.00166666671 0
0.0599999987 0.00166666671 0
0.0566666685 0.00166666671 0
0.0533333346 0.00166666671 0
0.0500000007 0.00166666671 0
0.0466666669 0.00166666671 0
0.043333333 0.00166666671 0
0.0399999991 0.00166666671 0
0.0366666652 0.00166666671 0
0.0333333351 0.00166666671 0
0.0299999993 0.00166666671 0
0.0266666673 0.00166666671 0
0.0233333334 0.00166666671 0
0.0199999996 0.00166666671 0
0.0166666675 0.00166666671 0
0.0133333337 0.00166666671 0
0.00999999978 0.00166666671 0
0.00666666683 0.00166666671 0
0.00333333341 0.00166666671 0
0.0 0.00166666671 0
0.100000001 -0.00166666671 0
0.0966666639 -0.00166666671 0
0.0933333337 -0.00166666671 0
0.0900000036 -0.00166666671 0
0.086666666 -0.00166666671 0
0.0833333358 -0.00166666671 0
0.0799999982 -0.00166666671 0
0.0766666681 -0.00166666671 0
0.0733333305 -0.00166666671 0
0.0700000003 -0.00166666671 0
0.0666666701 -0.00166666671 0
0.0633333325 -0.00166666671 0
0.0599999987 -0.00166666671 0
0.0566666685 -0.00166666671 0
0.0533333346 -0.00166666671 0
0.0500000007 -0.00166666671 0
0.0466666669 -0.00166666671 0
0.043333333 -0.00166666671 0
0.0399999991 -0.00166666671 0
0.0366666652 -0.00166666671 0
0.0333333351 -0.00166666671 0
0.0299999993 -0.00166666671 0
0.0266666673 -0.00166666671 0
0.0233333334 -0.00166666671 0
0.0199999996 -0.00166666671 0
0.0166666675 -0.00166666671 0
0.0133333337 -0.00166666671 0
0.00999999978 -0.00166666671 0
0.00666666683 -0.00166666671 0
0.00333333341 -0.00166666671 0
0.0 -0.00166666671 0
0.100000001 -0.00499999989 0
0.0966666639 -0.00499999989 0
0.0933333337 -0.00499999989 0
0.0900000036 -0.00499999989 0
0.086666666 -0.00499999989 0
0.0833333358 -0.00499999989 0
0.0799999982 -0.00499999989 0
0.0766666681 -0.00499999989 0
0.0733333305 -0.00499999989 0
0.0700000003 -0.00499999989 0
0.0666666701 -0.00499999989 0
0.0633333325 -0.00499999989 0
0.0599999987 -0.00499999989 0
0.0566666685 -0.00499999989 0
0.0533333346 -0.00499999989 0
0.0500000007 -0.00499999989 0
0.0466666669 -0.00499999989 0
0.043333333 -0.00499999989 0
0.0399999991 -0.00499999989 0
0.0366666652 -0.00499999989 0
0.0333333351 -0.00499999989 0
0.0299999993 -0.00499999989 0
0.0266666673 -0.00499999989 0
0.0233333334 -0.00499999989 0
0.0199999996 -0.00499999989 0
0.0166666675 -0.00499999989 0
0.0133333337 -0.00499999989 0
0.00999999978 -0.00499999989 0
0.00666666683 -0.00499999989 0
0.00333333341 -0.00499999989 0
0.0 -0.00499999989 0
0.100000001 -0.00833333377 0
0.0966666639 -0.00833333377 0
0.0933333337 -0.00833333377 0
0.0900000036 -0.00833333377 0
0.086666666 -0.00833333377 0
0.0833333358 -0.00833333377 0
0.0799999982 -0.00833333377 0
0.0766666681 -0.00833333377 0
0.0733333305 -0.00833333377 0
0.0700000003 -0.00833333377 0
0.0666666701 -0.00833333377 0
0.0633333325 -0.00833333377 0
0.0599999987 -0.00833333377 0
0.0566666685 -0.00833333377 0
0.0533333346 -0.00833333377 0
0.0500000007 -0.00833333377 0
0.0466666669 -0.00833333377 0
0.043333333 -0.00833333377 0
0.0399999991 -0.00833333377 0
0.0366666652 -0.00833333377 0
0.0333333351 -0.00833333377 0
0.0299999993 -0.00833333377 0
0.0266666673 -0.00833333377 0
0.0233333334 -0.00833333377 0
0.0199999996 -0.00833333377 0
0.0166666675 -0.00833333377 0
0.0133333337 -0.00833333377 0
0.00999999978 -0.00833333377 0
0.00666666683 -0.00833333377 0
0.00333333341 -0.00833333377 0
0.0 -0.00833333377 0
0.100000001 -0.0116666667 0
0.0966666639 -0.0116666667 0
0.0933333337 -0.0116666667 0
0.0900000036 -0.0116666667 0
0.086666666 -0.0116666667 0
0.0833333358 -0.0116666667 0
0.0799999982 -0.0116666667 0
0.0766666681 -0.0116666667 0
0.0733333305 -0.0116666667 0
0.0700000003 -0.0116666667 0
0.0666666701 -0.0116666667 0
0.0633333325 -0.0116666667 0
0.0599999987 -0.0116666667 0
0.0566666685 -0.0116666667 0
0.0533333346 -0.0116666667 0
0.0500000007 -0.0116666667 0
0.0466666669 -0.0116666667 0
0.043333333 -0.0116666667 0
0.0399999991 -0.0116666667 0
0.0366666652 -0.0116666667 0
0.0333333351 -0.0116666667 0
0.0299999993 -0.0116666667 0
0.0266666673 -0.0116666667 0
0.0233333334 -0.0116666667 0
0.0199999996 -0.0116666667 0
0.0166666675 -0.0116666667 0
0.0133333337 -0.0116666667 0
0.00999999978 -0.0116666667 0
0.00666666683 -0.0116666667 0
0.00333333341 -0.0116666667 0
0.0 -0.0116666667 0
0.100000001 -0.0149999997 0
0.0966666639 -0.0149999997 0
0.0933333337 -0.0149999997 0
0.0900000036 -0.0149999997 0
0.086666666 -0.0149999997 0
0.0833333358 -0.0149999997 0
0.0799999982 -0.0149999997 0
0.0766666681 -0.0149999997 0
0.0733333305 -0.0149999997 0
0.0700000003 -0.0149999997 0
0.0666666701 -0.0149999997 0
0.0633333325 -0.0149999997 0
0.0599999987 -0.0149999997 0
0.0566666685 -0.0149999997 0
0.0533333346 -0.0149999997 0
0.0500000007 -0.0149999997 0
0.0466666669 -0.0149999997 0
0.043333333 -0.0149999997 0
0.0399999991 -0.0149999997 0
0.0366666652 -0.0149999997 0
0.0333333351 -0.0149999997 0
0.0299999993 -0.0149999997 0
0.0266666673 -0.0149999997 0
0.0233333334 -0.0149999997 0
0.0199999996 -0.0149999997 0
0.0166666675 -0.0149999997 0
0.0133333337 -0.0149999997 0
0.00999999978 -0.0149999997 0
0.00666666683 -0.0149999997 0
0.00333333341 -0.0149999997 0
0.0 -0.0149999997 0
0.100000001 -0.0183333326 0
0.0966666639 -0.0183333326 0
0.0933333337 -0.0183333326 0
0.0900000036 -0.0183333326 0
0.086666666 -0.0183333326 0
0.0833333358 -0.0183333326 0
0.0799999982 -0.0183333326 0
0.0766666681 -0.0183333326 0
0.0733333305 -0.0183333326 0
0.0700000003 -0.0183333326 0
0.0666666701 -0.0183333326 0
0.0633333325 -0.0183333326 0
0.0599999987 -0.0183333326 0
0.0566666685 -0.0183333326 0
0.0533333346 -0.0183333326 0
0.0500000007 -0.0183333326 0
0.0466666669 -0.0183333326 0
0.043333333 -0.0183333326 0
0.0399999991 -0.0183333326 0
0.0366666652 -0.0183333326 0
0.0333333351 -0.0183333326 0
0.0299999993 -0.0183333326 0
0.0266666673 -0.0183333326 0
0.0233333334 -0.0183333326 0
0.0199999996 -0.0183333326 0
0.0166666675 -0.0183333326 0
0.0133333337 -0.0183333326 0
0.00999999978 -0.0183333326 0
0.00666666683 -0.0183333326 0
0.00333333341 -0.0183333326 0
0.0 -0.0183333326 0
0.100000001 -0.0216666665 0
0.0966666639 -0.0216666665 0
0.0933333337 -0.0216666665 0
0.0900000036 -0.0216666665 0
0.086666666 -0.0216666665 0
0.0833333358 -0.0216666665 0
0.0799999982 -0.0216666665 0
0.0766666681 -0.0216666665 0
0.0733333305 -0.0216666665 0
0.0700000003 -0.0216666665 0
0.0666666701 -0.0216666665 0
0.0633333325 -0.0216666665 0
0.0599999987 -0.0216666665 0
0.0566666685 -0.0216666665 0
0.0533333346 -0.0216666665 0
0.0500000007 -0.0216666665 0
0.0466666669 -0.0216666665 0
0.043333333 -0.0216666665 0
0.0399999991 -0.0216666665 0
0.0366666652 -0.0216666665 0
0.0333333351 -0.0216666665 0
0.0299999993 -0.0216666665 0
0.0266666673 -0.0216666665 0
0.0233333334 -0.0216666665 0
0.0199999996 -0.0216666665 0
0.0166666675 -0.0216666665 0
0.0133333337 -0.0216666665 0
0.00999999978 -0.0216666665 0
0.00666666683 -0.0216666665 0
0.00333333341 -0.0216666665 0
0.0 -0.0216666665 0
0.100000001 -0.0250000004 0
0.0966666639 -0.0250000004 0
0.0933333337 -0.0250000004 0
0.0900000036 -0.0250000004 0
0.086666666 -0.0250000004 0
0.0833333358 -0.0250000004 0
0.0799999982 -0.0250000004 0
0.0766666681 -0.0250000004 0
0.0733333305 -0.0250000004 0
0.0700000003 -0.0250000004 0
0.0666666701 -0.0250000004 0
0.0633333325 -0.0250000004 0
0.0599999987 -0.0250000004 0
0.0566666685 -0.0250000004 0
0.0533333346 -0.0250000004 0
0.0500000007 -0.0250000004 0
0.0466666669 -0.0250000004 0
0.043333333 -0.0250000004 0
0.0399999991 -0.0250000004 0
0.0366666652 -0.0250000004 0
0.0333333351 -0.0250000004 0
0.0299999993 -0.0250000004 0
0.0266666673 -0.0250000004 0
0.0233333334 -0.0250000004 0
0.0199999996 -0.0250000004 0
0.0166666675 -0.0250000004 0
0.0133333337 -0.0250000004 0
0.00999999978 -0.0250000004 0
0.00666666683 -0.0250000004 0
0.00333333341 -0.0250000004 0
0.0 -0.0250000004 0
0.100000001 -0.0283333343 0
0.0966666639 -0.0283333343 0
0.0933333337 -0.0283333343 0
0.0900000036 -0.0283333343 0
0.086666666 -0.0283333343 0
0.0833333358 -0.0283333343 0
0.0799999982 -0.0283333343 0
0.0766666681 -0.0283333343 0
0.0733333305 -0.0283333343 0
0.0700000003 -0.0283333343 0
0.0666666701 -0.0283333343 0
0.0633333325 -0.0283333343 0
0.0599999987 -0.0283333343 0
0.0566666685 -0.0283333343 0
0.0533333346 -0.0283333343 0
0.0500000007 -0.0283333343 0
0.0466666669 -0.0283333343 0
0.043333333 -0.0283333343 0
0.0399999991 -0.0283333343 0
0.0366666652 -0.0283333343 0
0.0333333351 -0.0283333343 0
0.0299999993 -0.0283333343 0
0.0266666673 -0.0283333343 0
0.0233333334 -0.0283333343 0
0.0199999996 -0.0283333343 0
0.0166666675 -0.0283333343 0
0.0133333337 -0.0283333343 0
0.00999999978 -0.0283333343 0
0.00666666683 -0.0283333343 0
0.00333333341 -0.0283333343 0
0.0 -0.0283333343 0
[...]
POINT_DATA 961
SCALARS Temp float 1
LOOKUP_TABLE default
324.5635314899432
293.13873791687433
268.7757041829398
250.87400521621655
238.42688100126915
230.24306352059102
225.15435540104073
222.1596236204096
220.48937564004248
219.6050366190009
219.1596457375054
218.94582488657795
218.8478362650041
218.80510940941411
218.78800611619272
218.78351032896668
218.78800611488813
218.80510940573626
218.8478363288184
218.94582503600975
219.15964535782325
219.6050368842917
220.48937682681347
222.1596233291054
225.15435919692973
230.24305913084356
238.42688498152017
250.87399453991628
268.77570712152334
293.1387686055553
324.5635312954103
293.1387707321081
260.5856957461899
235.34741126432303
216.80208371759755
203.90700647530315
195.42832678886666
190.1560325419916
187.05310281116851
185.32241548835844
184.4060231356806
183.94446119015106
183.72286343010262
183.62130457419528
183.577018286205
183.5592898135712
183.55462953159235
183.55928981221874
183.57701828239283
183.62130464033638
183.722863584973
183.94446079667057
184.40602341059497
185.32241671810343
187.05310250932055
190.15603647491398
195.42832224083259
203.90701059887022
216.8020726572498
235.3474143085156
260.585727537046
293.138770530622
268.77570878957886
235.34738112788102
209.42908000889395
190.38266706309128
177.1379569851118
168.42844219545722
163.01193520367912
159.8236924392035
158.04515629120755
157.10327960509187
156.62880391180644
156.40096777180116
156.29653206165892
156.25098369102847
156.23274728944125
156.22795303386698
156.2327472880498
156.25098368710698
156.29653212967844
156.40096793104192
156.6288035072806
157.10327988767452
158.045157555036
159.82369212900304
163.01193924442592
168.42843752325393
177.1379612206878
190.38265570334846
209.42908313521897
235.3474137743963
268.7757085827627
250.87399476955562
216.80203731314108
190.38265095187504
170.9660000577365
157.46208703103756
148.58076152279327
143.0564329537382
139.80408865699613
137.98940870550013
137.02817383109507
136.54383184554803
136.31120137150253
136.20454168235048
136.15801206687965
136.13937877352313
136.13447949762974
136.13937877210125
136.15801206287304
136.20454175182536
136.31120153410959
136.54383143255612
137.02817411951926
137.98940999513536
139.80408834048148
143.05643707527898
148.58075675792094
157.46209134979796
170.96598847638694
190.38265413880023
216.80207058951999
250.87399455888317
238.42688533736424
203.90697491633338
177.137956537312
157.46210322045786
143.77596668859712
134.77326165168583
129.17233456118944
125.87417104646266
124.0334850204967
123.05822473025958
122.56668301546921
122.33052837487985
122.22222194491474
122.17496062367238
122.15602953185844
122.15105114631615
122.15602953041387
122.17496061960207
122.22222201547069
122.33052853996814
122.56668259627526
123.05822502293107
124.03348632875522
125.87417072540049
129.17233874028528
134.77325682112684
143.7759710659647
157.46209148362166
177.13795976658992
203.90700863163983
238.42688512406207
230.24306112503172
195.4282879464706
168.42843453991088
148.5807705082705
134.77325420426342
125.68922827746603
120.03664344407505
116.70735456335332
114.84886398103416
113.86392219710216
113.36736817462113
113.12873872237994
113.0192658095042
112.97148180889516
112.95233641897964
112.9473008399295
112.95233641751841
112.97148180477882
113.01926588082853
113.12873888921676
113.36736775108913
113.86392249271783
114.84886530208745
116.7073542391744
120.036647662112
125.68922340272549
134.77325862077015
148.58075866810535
168.42843779720508
195.42832195113212
230.24306091004132
225.15435944022812
190.15600017370238
163.01193437022422
143.0564489890122
129.1723341700571
120.03665060834192
114.35100432877128
111.00162933234022
109.1315459736878
108.140240787747
107.64035995718103
107.40007143925756
107.28980868145312
107.24166732319411
107.2223741692348
107.21729894230032
107.22237416776197
107.24166731904616
107.28980875330011
107.40007160727114
107.64035953075404
108.14024108530735
109.13154730310539
111.00162900612946
114.3510085718236
120.03664570541044
129.1723386113358
143.0564370838129
163.01193764506075
190.1560343588281
225.1543592242174
222.15962416515146
187.05306670845204
159.82368786973728
139.80410093620597
125.8741667922023
116.70735785424775
111.0016254104291
107.63993489286234
105.76267280212654
104.7673855701932
104.26540006506879
104.02405016138054
103.91327639649623
103.86490130846313
103.84551058467126
103.84040902058132
103.84551058319066
103.86490130429432
103.91327646868275
104.0240503301501
104.26539963679913
104.76738586897699
105.76267413674728
107.63993456539178
111.00162966874157
116.70735293424677
125.87417124834691
139.80408899221885
159.82369115497687
187.05310100013628
222.1596239485592
220.4893773753583
185.32238055565432
158.04515298065576
137.98942230031025
124.03348206999472
114.84886860329262
109.13154337690007
105.76267414069977
103.881182365466
102.88352199006587
102.38026714499185
102.13826923145035
102.02717960957851
101.97865831191888
101.95920591116955
101.95408758884255
101.9592059096841
101.97865830773696
102.02717968197597
102.13826940068363
102.38026671560348
102.88352228958313
103.88118370316727
105.76267381248606
109.13154764405955
114.84886367347588
124.03348653460631
137.98941033437785
158.04515627174584
185.32241490698257
220.4893771584531
219.6050369175009
184.40598668028522
157.10327475959892
137.0281858761857
123.0582201909836
113.86392522305805
108.14023657642713
104.76738529242415
102.88352036820675
101.8845121858766
101.38052717472459
101.13815157051941
101.02687538946643
100.97826661086353
100.95877688832269
100.95364835343241
100.95877688683431
100.97826660667383
101.02687546198923
101.13815174002454
101.38052674468807
101.88451248581313
102.88352170764571
104.767384963793
108.14024084846562
113.86392028787402
123.0582246601784
137.0281738984575
157.10327805381402
184.40602106331252
219.60503670043653
219.15964565923701
183.94442432718932
156.62879866245564
136.5438434868036
122.56667805776048
113.36737078197962
107.6403553201652
104.26539936214652
102.38026509591391
101.38052674800079
100.8761408295898
100.63355494921583
100.52217343008337
100.47351457465619
100.45400323081891
100.44886873526914
100.45400322932889
100.47351457046204
100.5221735026775
100.63355511887305
100.87614039919468
101.38052704816613
102.3802664362877
104.26539903329189
107.64035959476705
113.36736584400093
122.5666825293172
136.5438315030411
156.62880195825892
183.94445872624436
219.15964544209587
218.94582521033752
183.72282697553945
156.40096294961822
136.3112134530045
122.33052385987358
113.12874177909372
107.40006725256592
104.02404991193349
102.13826763654818
101.13815159924833
100.63355540524002
100.39085763270039
100.27941923282368
100.23073294729997
100.21120961170134
100.20607178451561
100.2112096102105
100.2307329431032
100.27941930545663
100.39085780243916
100.63355497465528
101.13815189953273
102.13826897740194
104.02404958296468
107.40007152845266
113.12873683972715
122.33052833259065
136.31120146629894
156.40096624619102
183.7228613823198
218.94582499316127
218.84783652950352
183.6212680544253
156.2965271757898
136.20455370074578
122.22221736390237
113.01926880049189
107.2898044275718
103.91327608013579
102.02717794734247
101.02687535104434
100.52217381899369
100.27941916557627
100.1679514146609
100.11925076708968
100.09972107271695
100.09458146499155
100.09972107122553
100.11925076289162
100.16795148731391
100.27941933535678
100.52217338831313
101.02687565138793
102.02717928843136
103.91327575111139
107.28980870407332
113.01926386046735
122.22222183716376
136.20454171266988
156.2965304727186
183.6213024647604
218.84783631231195
218.8051096170308
183.57698170581787
156.25097874428488
136.1580240239406
122.17495597950179
112.97148473646466
107.24166300496685
103.86490092770727
101.97865658498196
100.97826650775949
100.47351489886432
100.23073281526517
100.119250702291
100.0705429266172
100.05101003728251
100.04586952813762
100.05101003579075
100.07054292241843
100.11925077495383
100.23073298506566
100.47351446813794
100.97826680813093
101.97865792618042
103.86490059865709
107.24166728174777
112.97147979614347
122.17496045300587
136.15801203525788
156.25098204137024
183.5770161177089
218.80510939983324
218.7880063318979
183.5592532409013
156.23274235122403
136.13939073963758
122.15602489653234
112.9523393556694
107.22236986000642
103.84551021306555
101.9592041933621
100.95877679442094
100.45400356425849
100.21120948888154
100.09972101713916
100.05101004650876
100.03147570991668
100.02633478979858
100.0314757084248
100.05101004230957
100.09972108980618
100.21120965869086
100.45400313351189
100.95877709480429
101.95920553460697
103.84550988400446
107.22237413690354
112.95233441522612
122.15602937013568
136.13937875070852
156.23274564837254
183.5592876534174
218.78800611469796
218.7835105509606
183.55459296526575
156.22794810233043
136.13449147066183
122.15104651792562
112.94730378368192
107.21729464013907
103.84040865610814
101.95408587817755
100.9536482667027
100.44886907589418
100.20607166887982
100.09458141660119
100.04586954455372
100.02633479698882
100.02119375970865
100.02633479549694
100.0458695403544
100.09458148926933
100.2060718386916
100.44886864514206
100.95364856708926
101.95408721943508
103.84040832704387
107.21729891706727
112.94729884320581
122.15105099155534
136.13447948166746
156.22795139949577
183.55462737794642
218.78351033375975
218.78800633509874
183.55925324421898
156.23274235463677
136.13939074312458
122.15602490007515
112.95233935925246
107.22236986361719
103.84551021669469
101.95920419700276
100.95877679806853
100.45400356791004
100.21120949253533
100.09972102079418
100.05101005016441
100.0314757135726
100.0263347934546
100.0314757120807
100.05101004596531
100.09972109346123
100.21120966234467
100.45400313716354
100.95877709845188
101.95920553824749
103.84550988763333
107.22237414051423
112.95233441880914
122.15602937367846
136.13937875419572
156.23274565178534
183.5592876567352
218.7880061178986
218.8051096251903
183.5769817142752
156.2509787529836
136.15802403282734
122.17495598852892
112.97148474559259
107.24166301416366
103.86490093694934
101.97865659425243
100.978266517047
100.47351490816165
100.2307328245678
100.11925071159648
100.07054293592415
100.05101004659002
100.04586953744527
100.05101004509825
100.07054293172526
100.11925078425934
100.2307329943683
100.47351447743507
100.97826681741832
101.97865793545066
103.86490060789892
107.24166729094458
112.97147980527134
122.17496046203313
136.1580120441446
156.25098205006898
183.57701612616626
218.80510940799255
218.84783654845452
183.62126807406707
156.29652719598914
136.2045537213767
122.22221738485369
113.01926882167089
107.2898044489053
103.91327610156969
102.02717796883864
101.02687537257755
100.52217384054772
100.27941918714177
100.16795143623233
100.1192507886639
100.09972109429239
100.09458148656726
100.09972109280088
100.11925078446582
100.16795150888521
100.2794193569221
100.52217340986721
101.02687567292094
102.02717930992732
103.91327577254508
107.28980872540679
113.0192638816462
122.22222185811515
136.20454173330074
156.2965304929177
183.62130248440224
218.8478363312629
218.94582525661974
183.72282702350597
156.40096299893773
136.31121350336608
122.33052391100269
113.12874183076363
107.40006730459952
104.02404996420049
102.13826768895849
101.13815165174243
100.6335554577809
100.39085768526638
100.27941928540253
100.23073299988489
100.21120966428899
100.20607183710385
100.21120966279796
100.23073299568819
100.27941935803528
100.3908578550051
100.63355502719621
101.13815195202669
102.13826902981191
104.0240496352316
107.40007158048603
113.1287368913969
122.33052838371974
136.31120151666028
156.40096629551059
183.72286143028643
218.94582503944358
219.1596459341336
183.94442461207413
156.62879895533155
136.5438437858
122.56667836123681
113.367371088586
107.64035562885803
104.26539967216563
102.38026540673717
101.38052705928916
100.876141141135
100.63355526089647
100.52217374183243
100.47351488643791
100.45400354261464
100.44886904706868
100.45400354112468
100.47351488224363
100.52217381442655
100.6335554305538
100.87614071073976
101.3805273594543
102.38026674711075
104.26539934331096
107.6403599034599
113.36736615060732
122.56668283279333
136.54383180203752
156.62880225113472
183.94445901112908
219.15964571699263
219.605036761252
184.40598651836567
157.1032745931559
137.0281857062913
123.05822001857504
113.86392504890289
108.14023640111533
104.76738511638283
102.88352019172662
101.88451200914484
101.38052699785514
101.1381513935779
101.02687521248893
100.97826643386898
100.95877671132071
100.95364817642844
100.95877670983236
100.97826642967935
101.0268752850118
101.13815156308297
101.3805265678185
101.8845123090814
102.88352153116566
104.76738478775162
108.1402406731539
113.86392011371878
123.05822448776986
137.0281737285632
157.10327788737078
184.40602090139305
219.60503654418764
220.48937840796583
185.32238162565582
158.04515408031796
137.98942342243433
124.03348320833145
114.84886975277065
109.13154453366334
105.7626753019961
103.88118352944718
102.88352315556189
102.38026831130281
102.13827039817986
102.02718077651323
101.97865947894914
101.95920707824047
101.95408875592447
101.9592070767551
101.9786594747674
102.02718084891086
102.13827056741319
102.3802678819145
102.88352345507911
103.88118486714852
105.7626749737824
109.13154880082274
114.84886482295371
124.033487672943
137.98941145650198
158.0451573714079
185.32241597698365
220.4893781910608
222.1596235888877
187.0530661113444
159.82368725614506
139.80410031017954
125.87416615724496
116.70735721318873
111.0016247654066
107.63993424539242
105.76267215321889
104.76738492048126
104.26539941492818
104.0240495110219
103.91327574603154
103.86490065794949
103.84550993413718
103.84040837004173
103.84550993265678
103.86490065378095
103.91327581821821
104.02404967979145
104.2653989866586
104.76738521926507
105.76267348783942
107.63993391792172
111.00162902371912
116.70735229318765
125.87417061338947
139.80408836619245
159.82369054138476
187.05310040302837
222.15962337229521
225.15436391545998
190.15600481049756
163.01193913415594
143.05645384821935
129.17233909714557
120.03665558136535
114.35100933130884
111.0016343528862
109.13155100467625
108.14024582449588
107.64036499695706
107.40007648055118
107.28981372347313
107.24167236554447
107.22237921172243
107.21730398482481
107.22237921024958
107.24167236139658
107.28981379532011
107.40007664856483
107.64036457053008
108.14024612205611
109.13155233409374
111.00163402667532
114.35101357436088
120.03665067843394
129.172343538424
143.05644194302013
163.01194240899207
190.15603899562285
225.15436369944896
230.24306292178957
195.4282898079869
168.42843645216777
148.58077245833718
134.77325618108046
125.68923027223619
120.03664545027259
116.70735657645189
114.8488659980902
113.86392421631572
113.36737019495503
113.12874074326875
113.01926783065502
112.971483830164
112.95233844029707
112.94730286125986
112.95233843883585
112.97148382604779
113.01926790197962
113.12874091010539
113.36736977142291
113.8639245119314
114.84886731914318
116.70735625227273
120.03664966830934
125.68922539749559
134.7732605975872
148.58076061817212
168.428439709462
195.4283238126483
230.243062706799
238.42687981905246
203.90696919929422
177.13795066489575
157.46209723258843
143.77596061933306
134.77325552802392
129.1723284030693
125.87416486764491
124.03347882987909
123.05821853324818
122.56667681515991
122.3305221729483
122.22221574222137
122.1749544206391
122.15602332868623
122.15104494310677
122.15602332724147
122.17495441656872
122.22221581277736
122.33052233803664
122.56667639596596
123.05821882591954
124.03348013813729
125.87416454658248
129.17233258216487
134.77325069746476
143.77596499670054
157.46208549575215
177.13795389417345
203.90700291460084
238.42687960575023
250.8740032476212
216.8020460961655
190.3826599726093
170.96600925439185
157.46209635110162
148.58077092485104
143.05644240738988
139.80409814141169
137.9894182073169
137.02818334226265
136.54384136149784
136.31121088978443
136.2045512017177
136.15802158672744
136.13938829356593
136.13448901772423
136.13938829214405
136.15802158272086
136.20455127119257
136.31121105239126
136.543840948506
137.02818363068667
137.98941949695185
139.80409782489676
143.05644652893037
148.5807661599784
157.46210066986168
170.96599767304218
190.3826631595343
216.80207937254377
250.87400303694855
268.7757012396069
235.34737330656623
209.42907197654466
190.382658875024
177.13794868820904
168.42843382655627
163.0119267896968
159.82368399848647
158.04514783545682
157.10327114131204
156.62879544394664
156.4009593019647
156.2965235909084
156.25097521987573
156.23273881812617
156.22794456250918
156.23273881673484
156.25097521595427
156.29652365892773
156.4009594612053
156.6287950394205
157.1032714238946
158.04514909928508
159.82368368828602
163.01193083044333
168.42842915435244
177.1379529237846
190.38264751528078
209.4290751028692
235.34740595308142
268.7757010327907
293.13879640148497
260.58572233746855
235.34743857129075
216.80211155137962
203.90703467618937
195.4283552317487
190.1560611357938
187.0531314940791
185.32244422114283
184.40605189496998
183.944489962841
183.7228922092514
183.62133335631577
183.57704706962613
183.55931859751462
183.5546583156735
183.5593185961623
183.57704706581376
183.62133342245681
183.72289236412186
183.94448956936068
184.4060521698844
185.32244545088795
187.05313119223112
190.1560650687158
195.42835068371434
203.90703879975604
216.80210049103155
235.34744161548252
260.58575412832334
293.1387961999988
324.56353138322464
293.1387378063431
268.7757040694904
250.8740051006595
238.42688088427835
230.2430634026824
225.1543552825786
222.1596235016335
220.48937552109817
219.60503649997145
219.1596456184352
218.94582476748923
218.8478361459073
218.80510929031396
218.78800599709132
218.78351020986509
218.78800599578673
218.80510928663614
218.84783620972163
218.94582491692097
219.1596452387532
219.60503676526253
220.4893767078693
222.15962321032927
225.15435907846754
230.2430590129345
238.426884864529
250.8739944243589
268.7757070080736
293.1387684950237
324.5635311886913
