# vtk DataFile Version 2.0
Unstructured Grid Example
ASCII
DATASET UNSTRUCTURED_GRID

POINTS 961 float
0.100000001 0.00499999989 0
0.0966666639 0.00499999989 0
0.0933333337 0.00499999989 0
0.0900000036 0.00499999989 0
0.086666666 0.00499999989 0
0.0833333358 0.00499999989 0
0.0799999982 0.00499999989 0
0.0766666681 0.00499999989 0
0.0733333305 0.00499999989 0
0.0700000003 0.00499999989 0
0.0666666701 0.00499999989 0
0.0633333325 0.00499999989 0
0.0599999987 0.00499999989 0
0.0566666685 0.00499999989 0
0.0533333346 0.00499999989 0
0.0500000007 0.00499999989 0
0.0466666669 0.00499999989 0
0.043333333 0.00499999989 0
0.0399999991 0.00499999989 0
0.0366666652 0.00499999989 0
0.0333333351 0.00499999989 0
0.0299999993 0.00499999989 0
0.0266666673 0.00499999989 0
0.0233333334 0.00499999989 0
0.0199999996 0.00499999989 0
0.0166666675 0.00499999989 0
0.0133333337 0.00499999989 0
0.00999999978 0.00499999989 0
0.00666666683 0.00499999989 0
0.00333333341 0.00499999989 0
0.0 0.00499999989 0
0.100000001 0.00166666671 0
0.0966666639 0.00166666671 0
0.0933333337 0.00166666671 0
0.0900000036 0.00166666671 0
0.086666666 0.00166666671 0
0.0833333358 0.00166666671 0
0.0799999982 0.00166666671 0
0.0766666681 0.00166666671 0
0.0733333305 0.00166666671 0
0.0700000003 0.00166666671 0
0.0666666701 0.00166666671 0
0.0633333325 0.00166666671 0
0.0599999987 0.00166666671 0
0.0566666685 0.00166666671 0
0.0533333346 0.00166666671 0
0.0500000007 0.00166666671 0
0.0466666669 0.00166666671 0
0.043333333 0.00166666671 0
0.0399999991 0.00166666671 0
0.0366666652 0.00166666671 0
0.0333333351 0.00166666671 0
0.0299999993 0.00166666671 0
0.0266666673 0.00166666671 0
0.0233333334 0.00166666671 0
0.0199999996 0.00166666671 0
0.0166666675 0.00166666671 0
0.0133333337 0.00166666671 0
0.00999999978 0.00166666671 0
0.00666666683 0.00166666671 0
0.00333333341 0.00166666671 0
0.0 0.00166666671 0
0.100000001 -0.00166666671 0
0.0966666639 -0.00166666671 0
0.0933333337 -0.00166666671 0
0.0900000036 -0.00166666671 0
0.086666666 -0.00166666671 0
0.0833333358 -0.00166666671 0
0.0799999982 -0.00166666671 0
0.0766666681 -0.00166666671 0
0.0733333305 -0.00166666671 0
0.0700000003 -0.00166666671 0
0.0666666701 -0.00166666671 0
0.0633333325 -0.00166666671 0
0.0599999987 -0.00166666671 0
0.0566666685 -0.00166666671 0
0.0533333346 -0.00166666671 0
0.0500000007 -0.00166666671 0
0.0466666669 -0.00166666671 0
0.043333333 -0.00166666671 0
0.0399999991 -0.00166666671 0
0.0366666652 -0.00166666671 0
0.0333333351 -0.00166666671 0
0.0299999993 -0.00166666671 0
0.0266666673 -0.00166666671 0
0.0233333334 -0.00166666671 0
0.0199999996 -0.00166666671 0
0.0166666675 -0.00166666671 0
0.0133333337 -0.00166666671 0
0.00999999978 -0.00166666671 0
0.00666666683 -0.00166666671 0
0.00333333341 -0.00166666671 0
0.0 -0.00166666671 0
0.100000001 -0.00499999989 0
0.0966666639 -0.00499999989 0
0.0933333337 -0.00499999989 0
0.0900000036 -0.00499999989 0
0.086666666 -0.00499999989 0
0.0833333358 -0.00499999989 0
0.0799999982 -0.00499999989 0
0.0766666681 -0.00499999989 0
0.0733333305 -0.00499999989 0
0.0700000003 -0.00499999989 0
0.0666666701 -0.00499999989 0
0.0633333325 -0.00499999989 0
0.0599999987 -0.00499999989 0
0.0566666685 -0.00499999989 0
0.0533333346 -0.00499999989 0
0.0500000007 -0.00499999989 0
0.0466666669 -0.00499999989 0
0.043333333 -0.00499999989 0
0.0399999991 -0.00499999989 0
0.0366666652 -0.00499999989 0
0.0333333351 -0.00499999989 0
0.0299999993 -0.00499999989 0
0.0266666673 -0.00499999989 0
0.0233333334 -0.00499999989 0
0.0199999996 -0.00499999989 0
0.0166666675 -0.00499999989 0
0.0133333337 -0.00499999989 0
0.00999999978 -0.00499999989 0
0.00666666683 -0.00499999989 0
0.00333333341 -0.00499999989 0
0.0 -0.00499999989 0
0.100000001 -0.00833333377 0
0.0966666639 -0.00833333377 0
0.0933333337 -0.00833333377 0
0.0900000036 -0.00833333377 0
0.086666666 -0.00833333377 0
0.0833333358 -0.00833333377 0
0.0799999982 -0.00833333377 0
0.0766666681 -0.00833333377 0
0.0733333305 -0.00833333377 0
0.0700000003 -0.00833333377 0
0.0666666701 -0.00833333377 0
0.0633333325 -0.00833333377 0
0.0599999987 -0.00833333377 0
0.0566666685 -0.00833333377 0
0.0533333346 -0.00833333377 0
0.0500000007 -0.00833333377 0
0.0466666669 -0.00833333377 0
0.043333333 -0.00833333377 0
0.0399999991 -0.00833333377 0
0.0366666652 -0.00833333377 0
0.0333333351 -0.00833333377 0
0.0299999993 -0.00833333377 0
0.0266666673 -0.00833333377 0
0.0233333334 -0.00833333377 0
0.0199999996 -0.00833333377 0
0.0166666675 -0.00833333377 0
0.0133333337 -0.00833333377 0
0.00999999978 -0.00833333377 0
0.00666666683 -0.00833333377 0
0.00333333341 -0.00833333377 0
0.0 -0.00833333377 0
0.100000001 -0.0116666667 0
0.0966666639 -0.0116666667 0
0.0933333337 -0.0116666667 0
0.0900000036 -0.0116666667 0
0.086666666 -0.0116666667 0
0.0833333358 -0.0116666667 0
0.0799999982 -0.0116666667 0
0.0766666681 -0.0116666667 0
0.0733333305 -0.0116666667 0
0.0700000003 -0.0116666667 0
0.0666666701 -0.0116666667 0
0.0633333325 -0.0116666667 0
0.0599999987 -0.0116666667 0
0.0566666685 -0.0116666667 0
0.0533333346 -0.0116666667 0
0.0500000007 -0.0116666667 0
0.0466666669 -0.0116666667 0
0.043333333 -0.0116666667 0
0.0399999991 -0.0116666667 0
0.0366666652 -0.0116666667 0
0.0333333351 -0.0116666667 0
0.0299999993 -0.0116666667 0
0.0266666673 -0.0116666667 0
0.0233333334 -0.0116666667 0
0.0199999996 -0.0116666667 0
0.0166666675 -0.0116666667 0
0.0133333337 -0.0116666667 0
0.00999999978 -0.0116666667 0
0.00666666683 -0.0116666667 0
0.00333333341 -0.0116666667 0
0.0 -0.0116666667 0
0.100000001 -0.0149999997 0
0.0966666639 -0.0149999997 0
0.0933333337 -0.0149999997 0
0.0900000036 -0.0149999997 0
0.086666666 -0.0149999997 0
0.0833333358 -0.0149999997 0
0.0799999982 -0.0149999997 0
0.0766666681 -0.0149999997 0
0.0733333305 -0.0149999997 0
0.0700000003 -0.0149999997 0
0.0666666701 -0.0149999997 0
0.0633333325 -0.0149999997 0
0.0599999987 -0.0149999997 0
0.0566666685 -0.0149999997 0
0.0533333346 -0.0149999997 0
0.0500000007 -0.0149999997 0
0.0466666669 -0.0149999997 0
0.043333333 -0.0149999997 0
0.0399999991 -0.0149999997 0
0.0366666652 -0.0149999997 0
0.0333333351 -0.0149999997 0
0.0299999993 -0.0149999997 0
0.0266666673 -0.0149999997 0
0.0233333334 -0.0149999997 0
0.0199999996 -0.0149999997 0
0.0166666675 -0.0149999997 0
0.0133333337 -0.0149999997 0
0.00999999978 -0.0149999997 0
0.00666666683 -0.0149999997 0
0.00333333341 -0.0149999997 0
0.0 -0.0149999997 0
0.100000001 -0.0183333326 0
0.0966666639 -0.0183333326 0
0.0933333337 -0.0183333326 0
0.0900000036 -0.0183333326 0
0.086666666 -0.0183333326 0
0.0833333358 -0.0183333326 0
0.0799999982 -0.0183333326 0
0.0766666681 -0.0183333326 0
0.0733333305 -0.0183333326 0
0.0700000003 -0.0183333326 0
0.0666666701 -0.0183333326 0
0.0633333325 -0.0183333326 0
0.0599999987 -0.0183333326 0
0.0566666685 -0.0183333326 0
0.0533333346 -0.0183333326 0
0.0500000007 -0.0183333326 0
0.0466666669 -0.0183333326 0
0.043333333 -0.0183333326 0
0.0399999991 -0.0183333326 0
0.0366666652 -0.0183333326 0
0.0333333351 -0.0183333326 0
0.0299999993 -0.0183333326 0
0.0266666673 -0.0183333326 0
0.0233333334 -0.0183333326 0
0.0199999996 -0.0183333326 0
0.0166666675 -0.0183333326 0
0.0133333337 -0.0183333326 0
0.00999999978 -0.0183333326 0
0.00666666683 -0.0183333326 0
0.00333333341 -0.0183333326 0
0.0 -0.0183333326 0
0.100000001 -0.0216666665 0
0.0966666639 -0.0216666665 0
0.0933333337 -0.0216666665 0
0.0900000036 -0.0216666665 0
0.086666666 -0.0216666665 0
0.0833333358 -0.0216666665 0
0.0799999982 -0.0216666665 0
0.0766666681 -0.0216666665 0
0.0733333305 -0.0216666665 0
0.0700000003 -0.0216666665 0
0.0666666701 -0.0216666665 0
0.0633333325 -0.0216666665 0
0.0599999987 -0.0216666665 0
0.0566666685 -0.0216666665 0
0.0533333346 -0.0216666665 0
0.0500000007 -0.0216666665 0
0.0466666669 -0.0216666665 0
0.043333333 -0.0216666665 0
0.0399999991 -0.0216666665 0
0.0366666652 -0.0216666665 0
0.0333333351 -0.0216666665 0
0.0299999993 -0.0216666665 0
0.0266666673 -0.0216666665 0
0.0233333334 -0.0216666665 0
0.0199999996 -0.0216666665 0
0.0166666675 -0.0216666665 0
0.0133333337 -0.0216666665 0
0.00999999978 -0.0216666665 0
0.00666666683 -0.0216666665 0
0.00333333341 -0.0216666665 0
0.0 -0.0216666665 0
0.100000001 -0.0250000004 0
0.0966666639 -0.0250000004 0
0.0933333337 -0.0250000004 0
0.0900000036 -0.0250000004 0
0.086666666 -0.0250000004 0
0.0833333358 -0.0250000004 0
0.0799999982 -0.0250000004 0
0.0766666681 -0.0250000004 0
0.0733333305 -0.0250000004 0
0.0700000003 -0.0250000004 0
0.0666666701 -0.0250000004 0
0.0633333325 -0.0250000004 0
0.0599999987 -0.0250000004 0
0.0566666685 -0.0250000004 0
0.0533333346 -0.0250000004 0
0.0500000007 -0.0250000004 0
0.0466666669 -0.0250000004 0
0.043333333 -0.0250000004 0
0.0399999991 -0.0250000004 0
0.0366666652 -0.0250000004 0
0.0333333351 -0.0250000004 0
0.0299999993 -0.0250000004 0
0.0266666673 -0.0250000004 0
0.0233333334 -0.0250000004 0
0.0199999996 -0.0250000004 0
0.0166666675 -0.0250000004 0
0.0133333337 -0.0250000004 0
0.00999999978 -0.0250000004 0
0.00666666683 -0.0250000004 0
0.00333333341 -0.0250000004 0
0.0 -0.0250000004 0
0.100000001 -0.0283333343 0
0.0966666639 -0.0283333343 0
0.0933333337 -0.0283333343 0
0.0900000036 -0.0283333343 0
0.086666666 -0.0283333343 0
0.0833333358 -0.0283333343 0
0.0799999982 -0.0283333343 0
0.0766666681 -0.0283333343 0
0.0733333305 -0.0283333343 0
0.0700000003 -0.0283333343 0
0.0666666701 -0.0283333343 0
0.0633333325 -0.0283333343 0
0.0599999987 -0.0283333343 0
0.0566666685 -0.0283333343 0
0.0533333346 -0.0283333343 0
0.0500000007 -0.0283333343 0
0.0466666669 -0.0283333343 0
0.043333333 -0.0283333343 0
0.0399999991 -0.0283333343 0
0.0366666652 -0.0283333343 0
0.0333333351 -0.0283333343 0
0.0299999993 -0.0283333343 0
0.0266666673 -0.0283333343 0
0.0233333334 -0.0283333343 0
0.0199999996 -0.0283333343 0
0.0166666675 -0.0283333343 0
0.0133333337 -0.0283333343 0
0.00999999978 -0.0283333343 0
0.00666666683 -0.0283333343 0
0.00333333341 -0.0283333343 0
0.0 -0.0283333343 0
[...]
POINT_DATA 961
SCALARS Temp float 1
LOOKUP_TABLE default
312.45123021353015
280.85012451696116
256.87296599402066
239.7566606773671
228.27907839103273
221.05212959912998
216.77635836234796
214.395842016409
213.1460230712141
212.52565796558756
212.2337117797056
212.1030716337004
212.04734791354537
212.02471826810958
212.0162240317505
212.014083079854
212.01622403112884
212.02471826625657
212.04734794877842
212.10307172254767
212.2337115399322
212.52565814560504
213.1460239357059
214.39584180069903
216.77636147459273
221.05212583683038
228.27908199213195
239.7566506642337
256.87296884746155
280.85015505004895
312.4512299868045
280.85015720205166
248.1235646973406
223.29177753086498
205.5647458608669
193.67709648561413
186.19154795693544
181.76251185411493
179.29650373945483
178.00170908151503
177.35897261001963
177.05647567067226
176.92110400414592
176.863357722489
176.8399049865443
176.83110121929693
176.82888215604873
176.83110121865255
176.83990498462364
176.8633577590021
176.92110409621358
177.05647542222366
177.35897279653557
178.00170997714318
179.29650351597928
181.76251507801146
186.1915440598681
193.67710021545935
205.56473549020254
223.29178048605996
248.12359631829887
280.8501569672891
256.8729705087836
223.29174747190768
197.809647812999
179.61659904798768
167.41496266945697
159.73059926346411
155.18319072262238
152.65082395782227
151.32093405608992
150.66064475662708
150.34982309488308
150.2106971161
150.15133703086676
150.1272240104028
150.11817074858598
150.11588852889275
150.118170747923
150.12722400842782
150.1513370684033
150.21069721072865
150.34982283956955
150.66064494825588
151.32093497606962
152.6508237282811
155.18319403294217
159.73059526249733
167.4149664980585
179.616588403998
197.80965084571818
223.29177991978418
256.8729702679954
239.75665093139858
205.5647003989057
179.61658380167074
161.08834191916048
148.65982142833863
140.83101802314775
136.19708691012323
133.61589428054268
132.26000008550238
131.58660993978168
131.26952885294943
131.1275589597742
131.0669674177059
131.04234698339872
131.03310078991524
131.03076953428877
131.03310078923823
131.04234698138168
131.06696745602576
131.12755905634785
131.2695285924539
131.58661013524056
132.26000102357995
133.6158940465009
136.1970902837979
140.83101394641758
148.65982532847
161.0883310780866
179.61658689003696
205.56473343852022
239.75665068637875
228.27908237456487
193.67706481769446
167.41496195905222
148.65983642490565
136.07686573773287
128.1490751216858
123.4553999113135
120.8402148749916
119.4660582488227
118.78338410219953
118.4618262398316
118.31780350973918
118.25631492147626
118.23132161212499
118.22193254032979
118.2195647886245
118.22193253964211
118.23132161007703
118.25631496036888
118.31780360772187
118.46182597561163
118.78338430038481
119.4660591996579
120.84021463778404
123.45540332889405
128.14907099279534
136.07686968670126
148.65982545002078
167.41496508499003
193.67709825530613
228.27908212676684
221.0521276225101
186.19150984657503
159.730592178233
140.83102664687019
128.14906854940358
120.1573356211354
115.42472358000192
112.7871689650126
111.40086980243069
110.71195632193074
110.38735675522634
110.2419238349109
110.17981229105837
110.15455731718163
110.14506705179335
110.14267329788915
110.14506705109824
110.15455731511173
110.17981233035027
110.24192393386555
110.38735648846114
110.71195652195827
111.40087076178618
112.78716872569616
115.4247270263205
120.15733145836968
128.14907252978065
140.83101558649201
159.73059532802
186.191543535681
221.05212737300772
216.77636175171088
181.76247914235182
155.183189322095
136.19710139995925
123.4553992092889
115.42472953137268
110.66816806171353
108.01670202499405
106.62276238621625
105.92987454605485
105.60331300914233
105.45695891261062
105.39443530457538
105.36900514638462
105.35944640694689
105.35703493769081
105.35944640624656
105.36900514429996
105.39443534413302
105.45695901220313
105.60331274072429
105.929874747263
106.6227633509605
108.01670178434775
110.6681715257951
115.42472534785355
123.45540320869725
136.19709028816268
155.1831924861223
181.76251298085026
216.77636150123095
214.39584253290056
179.29646796244293
152.65081948907095
133.61590568478297
120.84021100652333
112.78717174185002
108.01669881650855
105.35705370578039
103.9585633270439
103.2632759512054
102.93551320244987
102.78858708775714
102.72580397794933
102.70026198759008
102.69065901023612
102.68823600790915
102.69065900953248
102.70026198549584
102.72580401767516
102.7885871877479
102.93551293301218
103.26327615313132
103.95856429501607
105.35705346434023
108.01670229096358
112.7871675463285
120.84021501680624
133.61589454384358
152.65082266110613
179.29650188448016
214.39584228189563
213.14602442876082
178.0016741287811
151.32093047585818
132.26001241792648
119.46605529945333
111.40087351678191
106.62276011093188
103.95856426875184
102.5575063506502
101.86084511617732
101.53238408764362
101.38512027723021
101.3221815869941
101.29657154094842
101.28694128600489
101.28451111228999
101.28694128529914
101.29657153884834
101.32218162682129
101.38512037745748
101.53238381760835
101.8608453185172
102.55750732045487
103.95856402686267
106.62276359111742
111.40086931469934
119.46605931560542
132.26000126139456
151.32093365214297
178.0017080948826
213.14602417749077
212.52565827413318
177.35893654701914
150.6606400567468
131.58662114167836
118.78337999584932
110.71195887410022
105.92987109701637
103.26327571800752
101.86084393805116
101.16343604443989
100.83458933332138
100.68713589518917
100.62410838053951
100.59845884956252
100.58881254250387
100.5863781103641
100.5888125417969
100.59845884745913
100.62410842042505
100.68713599555004
100.83458906295294
101.1634362470067
101.86084490884298
103.26327547587766
105.92987458020067
110.71195466862157
118.78338401499917
131.5866099772539
150.66064323516474
177.35897053509885
212.52565802273742
212.23371184642784
177.05643934599914
150.34981813594408
131.26953979588205
118.4618218654952
110.38735903936191
105.60330928792686
102.93551269743037
101.53238263658761
100.83458906067331
100.5055397330251
100.35798492993126
100.29490909574594
100.26923771609388
100.25958239232736
100.257145545276
100.25958239161972
100.26923771398862
100.2949091356634
100.35798503036413
100.50553946248016
100.83458926335845
101.53238360788461
102.93551245517807
105.60331277260093
110.38735483221534
118.4618258860977
131.2695286276683
150.3498213153774
177.0564733444732
212.2337115949754
212.10307195036984
176.92106793347523
150.21069242261095
131.12757017599114
118.31779941017004
110.24192639764516
105.45695547056111
102.7885868636275
101.38511910744447
100.68713590446318
100.35798521212945
100.21037878023573
100.14727788372193
100.12159496871988
100.11193480948836
100.10949665452554
100.11193480878032
100.12159496661356
100.14727792365628
100.21037888070558
100.35798494149526
100.68713610720691
101.38512007898773
102.78858662131582
105.45695895593914
110.2419221897194
118.31780343144185
131.1275590060475
150.21069560250385
176.9211019366238
212.10307169889373
212.04734819290525
176.86332161101947
150.15133229734195
131.06697859412742
118.2563107804749
110.17981481247422
105.39443182042321
102.72580371184833
101.32218037502517
100.62410834771617
100.294909335861
100.14727784157864
100.08416455193476
100.05847582870963
100.04881319574947
100.04637436496374
100.04881319504135
100.0584758266028
100.08416459187738
100.14727794206658
100.29490906518384
100.62410855048752
101.32218134668256
102.72580346950922
105.394435306118
110.17981060420173
118.25631480204062
131.06696742343124
150.15133547743307
176.86335561617187
212.04734794141942
212.024718516458
176.83986884206345
150.1272192437115
131.04235812639558
118.23131743675485
110.15455980408953
105.36900162726475
102.70026168649586
101.29657029384347
100.59845878161181
100.26923792107208
100.1215948914034
100.05847579353188
100.0327842996387
100.02312046823602
100.02068130684981
100.02312046752775
100.03278429753156
100.05847583347837
100.12159499189961
100.26923765037523
100.59845898439559
101.29657126555114
102.70026144414473
105.36900511309501
110.15455559567027
118.23132145844315
131.04234695538784
150.127222423884
176.83990284803346
212.02471826496839
212.01622428427387
176.83106507881422
150.1181659862962
131.03311193757256
118.22192836952198
110.14506954339538
105.3594428924661
102.69065871385102
101.28694004360071
100.58881247928574
100.25958260205039
100.11193473691004
100.04881316531241
100.02312047297866
100.01345611616253
100.01101680861869
100.0134561154542
100.02312047087126
100.04881320526034
100.11193483740956
100.25958233134516
100.58881268207458
101.28694101532852
102.69065847149507
105.35944637834967
110.14506533491904
118.22193239125752
131.03310076644598
150.1181691664996
176.8310990850925
212.01622403278304
212.01408333538015
176.8288460185949
150.1158837697918
131.03078068524556
118.21956062112437
110.14267579285669
105.3570314265777
102.6882357149204
101.28450987328671
100.58637805055932
100.25714575841764
100.10949658536529
100.04637433794598
100.02068131501264
100.01101681203912
100.00857746362752
100.01101681133083
100.0206813129052
100.04637437789437
100.10949668586589
100.2571454877103
100.58637825334927
101.28451084501988
102.68823547256305
105.35703491247502
110.14267158436566
118.21956464287199
131.0307695140886
150.11588695000316
176.82888002495113
212.01408308388878
212.0162242858574
176.83106508045552
150.11816598798404
131.03311193929653
118.22192837127238
110.14506954516492
105.35944289424847
102.69065871564166
101.28694004539653
100.58881248108453
100.25958260385077
100.11193473871128
100.04881316711415
100.02312047478067
100.01345611796467
100.01101681042091
100.01345611725631
100.02312047267331
100.04881320706211
100.11193483921086
100.2595823331457
100.58881268387321
101.28694101712424
102.69065847328568
105.359446380132
110.14506533668856
118.221932393008
131.0331007681699
150.11816916818756
176.83109908673387
212.01622403436676
212.02471852069237
176.83986884645205
150.12721924822384
131.04235813100317
118.23131744143276
110.15455980881696
105.36900163202543
102.70026169127784
101.29657029863849
100.59845878641444
100.26923792587885
100.12159489621247
100.05847579834207
100.0327843044494
100.02312047304696
100.02068131166068
100.02312047233855
100.03278430234222
100.05847583828846
100.12159499670858
100.26923765518198
100.59845898919797
101.29657127034595
102.70026144892653
105.36900511785555
110.1545556003977
118.23132146312109
131.0423469599956
150.12722242839644
176.83990285242203
212.02471826920294
212.04734820344456
176.86332162194154
150.15133230856998
131.06697860558938
118.2563107921079
110.17981482422624
105.39443183225431
102.72580372372946
101.32218038693651
100.62410835964491
100.2949093477991
100.14727785352174
100.08416456388028
100.05847584065619
100.04881320769664
100.04637437691082
100.04881320698837
100.05847583854936
100.0841646038228
100.14727795400952
100.29490907712186
100.62410856241608
101.32218135859362
102.72580348139023
105.39443531794903
110.17981061595367
118.2563148136736
131.0669674348932
150.15133548866095
176.86335562709388
212.04734795195864
212.10307197799915
176.92106796210598
150.21069245203773
131.1275702060223
118.3177994406388
110.24192642841561
105.45695550152955
102.78858689471932
101.38511913860957
100.6871359356696
100.35798524335807
100.21037881147585
100.14727791496757
100.12159499996805
100.11193484073745
100.10949668577497
100.11193484002948
100.12159499786165
100.14727795490168
100.21037891194558
100.35798497272391
100.6871361384132
101.3851201101525
102.78858665240737
105.45695898690727
110.24192222048976
118.31780346191059
131.12755903607865
150.2106956319305
176.92110196525454
212.10307172652298
212.23371202147723
177.05643952738035
150.3498183223327
131.2695399860473
118.46182205837182
110.38735923408903
105.603309483854
102.93551289409656
101.53238283368616
100.83458925801246
100.50553993049144
100.3579851274617
100.29490929330719
100.26923791366926
100.2595825899084
100.25714574285865
100.25958258920083
100.26923791156382
100.29490933322471
100.35798522789459
100.5055396599464
100.83458946069739
101.53238380498314
102.93551265184415
105.60331296852796
110.38735502694232
118.46182607897423
131.2695288178335
150.34982150176594
177.0564735258543
212.233711770025
212.52565816998134
177.35893643910518
150.6606399458689
131.58662102857573
118.78337988115918
110.71195875833445
105.92987098055877
103.26327560112799
101.86084382092736
101.16343592718161
100.83458921599265
100.68713577782538
100.62410826315913
100.59845873217458
100.58881242511275
100.5863779929722
100.5888124244058
100.59845873007121
100.62410830304457
100.68713587818628
100.8345889456242
101.16343612974839
101.86084479171919
103.26327535899817
105.9298744637431
110.7119545528557
118.78338390030905
131.58660986415117
150.66064312428674
177.35897042718494
212.5256579185857
213.14602517945292
178.00167490651296
151.32093127474107
132.26001323253251
119.46605612514647
111.40087434988209
106.62276094871865
103.95856510934698
102.55750719284062
101.86084595922738
101.53238493113375
101.3851211209348
101.32218243079818
101.29657238479628
101.28694212987052
101.28451195616032
101.28694212916487
101.29657238269634
101.3221824706254
101.38512122116211
101.5323846610985
101.86084616156728
102.55750816264533
103.95856486745791
106.62276442890398
111.40087014779937
119.46606014129836
132.2600020760006
151.32093445102586
178.00170887261442
213.14602492818295
214.39584209485264
179.29646750863944
152.65081902298954
133.61590520962022
120.84021052499695
112.78717125610362
108.01669832811457
105.35705321581491
103.95856283619514
103.26327545988572
102.93551271089167
102.7885865960842
102.7258034862238
102.70026149584152
102.69065851847849
102.68823551614905
102.69065851777478
102.70026149374723
102.72580352594957
102.78858669607496
102.93551244145414
103.2632756618116
103.95856380416713
105.3570529743747
108.0167018025696
112.78716706058196
120.84021453527983
133.61589406868092
152.65082219502486
179.29650143067659
214.39584184384756
216.77636541635036
181.76248293846606
155.1831932199869
136.19710537247306
123.45540323352694
115.42473358947318
110.66817214074987
108.01670611626027
106.62276648424036
105.92987864761672
105.60331711246192
105.45696301676114
105.39443940910004
105.36900925106939
105.35945051169449
105.35703904245476
105.35945051099417
105.36900924898482
105.39443944865755
105.45696311635356
105.60331684404389
105.92987884882461
106.62276744898436
108.01670587561375
110.66817560483115
115.42472940595405
123.45540723293514
136.19709426067655
155.18319638401394
181.7625167769641
216.77636516587043
221.05212919028912
186.1915114704754
159.7305938453246
140.83102834538434
128.1490702694898
120.15733735518577
115.4247253225762
112.78717071249746
111.40087155258901
110.71195807346714
110.3873585074369
110.24192558743515
110.17981404372146
110.15455906990337
110.14506880453793
110.14267505063955
110.14506880384278
110.15455906783367
110.17981408301344
110.24192568638954
110.38735824067157
110.71195827349447
111.40087251194424
112.78717047318062
115.42472876889462
120.15733319242003
128.1490742498668
140.83101728500614
159.73059699511165
186.19154515958118
221.05212894078667
228.2790774114532
193.67705967710347
167.41495668224476
148.65983104935955
136.07686029470892
128.14906963521742
123.45539439848895
120.84020934708705
119.46605271276833
118.7833785619763
118.46182069758558
118.31779796655984
118.25630937788648
118.23131606836354
118.22192699650233
118.21955924478011
118.22192699581481
118.23131606631574
118.25630941677895
118.31779806454234
118.46182043336557
118.78337876016144
119.46605366360318
120.84020910987917
123.45539781606925
128.14906550632682
136.07686424367733
148.6598200744747
167.4149598081824
193.67709311471503
228.27907716365527
239.75665889787066
205.56470864980827
179.61659226997028
161.08835054417452
148.65983015972057
140.8310268224648
136.19709575028264
133.61590314384117
132.26000896117634
131.58661882171722
131.2695377378901
131.1275678460861
131.06697630461417
131.04235587055388
131.03310967716465
131.03077842156227
131.03310967648756
131.04235586853696
131.06697634293397
131.12756794265968
131.26953747739435
131.5866190171761
132.26000989925353
133.61590290979913
136.19709912395692
140.83102274573426
148.65983405985153
161.08833970310044
179.61659535833618
205.56474168942248
239.75665865285092
256.87296318719547
223.29173988920894
197.80964003132462
179.61659112345038
167.41495464843354
159.73059118117638
155.1831826037448
152.65081581836404
151.32092590570858
150.66063660076279
150.34981493640893
150.21068895644464
150.1513288707018
150.1272158500285
150.1181625881324
150.1158803684192
150.11816258746953
150.1272158480535
150.1513289082383
150.21068905107313
150.34981468109527
150.66063679239167
151.3209268256881
152.6508155888226
155.1831859140643
159.730587180209
167.41495847703476
179.6165804794602
197.8096430640433
223.29177233708555
256.872962946407
280.85018274884095
248.1235911543344
223.2918046797081
205.56477350477562
193.67712446248413
186.19157614419166
181.76254016633675
179.29653212155108
178.00173750046514
177.35900104735018
177.05650411669495
176.92113245407737
176.86338617409595
176.83993343883498
176.8311296718452
176.82891060866203
176.83112967120073
176.83993343691424
176.86338621060915
176.92113254614515
177.0565038682466
177.35900123386622
178.00173839609337
179.29653189807564
181.76254339023288
186.19157224712416
193.67712819232892
205.564763134111
223.29180763490237
248.12362277529144
280.8501825140783
312.45123008685937
280.8501243858032
256.87296585950565
239.7566605405001
228.27907825262665
221.05212945978306
216.77635822246341
214.39584187623652
213.14602293089737
212.52565782520264
212.23371163929036
212.1030714932725
212.0473477731121
212.02471812767456
212.0162238913149
212.0140829394181
212.01622389069308
212.02471812582152
212.04734780834525
212.10307158211955
212.23371139951698
212.52565800522032
213.14602379538945
214.39584166052668
216.7763613347079
221.05212569748315
228.27908185372564
239.75665052736628
256.872968712946
280.85015491889084
312.45122986013354
