# vtk DataFile Version 2.0
Unstructured Grid Example
ASCII
DATASET UNSTRUCTURED_GRID

POINTS 961 float
0.100000001 0.00499999989 0
0.0966666639 0.00499999989 0
0.0933333337 0.00499999989 0
0.0900000036 0.00499999989 0
0.086666666 0.00499999989 0
0.0833333358 0.00499999989 0
0.0799999982 0.00499999989 0
0.0766666681 0.00499999989 0
0.0733333305 0.00499999989 0
0.0700000003 0.00499999989 0
0.0666666701 0.00499999989 0
0.0633333325 0.00499999989 0
0.0599999987 0.00499999989 0
0.0566666685 0.00499999989 0
0.0533333346 0.00499999989 0
0.0500000007 0.00499999989 0
0.0466666669 0.00499999989 0
0.043333333 0.00499999989 0
0.0399999991 0.00499999989 0
0.0366666652 0.00499999989 0
0.0333333351 0.00499999989 0
0.0299999993 0.00499999989 0
0.0266666673 0.00499999989 0
0.0233333334 0.00499999989 0
0.0199999996 0.00499999989 0
0.0166666675 0.00499999989 0
0.0133333337 0.00499999989 0
0.00999999978 0.00499999989 0
0.00666666683 0.00499999989 0
0.00333333341 0.00499999989 0
0.0 0.00499999989 0
0.100000001 0.00166666671 0
0.0966666639 0.00166666671 0
0.0933333337 0.00166666671 0
0.0900000036 0.00166666671 0
0.086666666 0.00166666671 0
0.0833333358 0.00166666671 0
0.0799999982 0.00166666671 0
0.0766666681 0.00166666671 0
0.0733333305 0.00166666671 0
0.0700000003 0.00166666671 0
0.0666666701 0.00166666671 0
0.0633333325 0.00166666671 0
0.0599999987 0.00166666671 0
0.0566666685 0.00166666671 0
0.0533333346 0.00166666671 0
0.0500000007 0.00166666671 0
0.0466666669 0.00166666671 0
0.043333333 0.00166666671 0
0.0399999991 0.00166666671 0
0.0366666652 0.00166666671 0
0.0333333351 0.00166666671 0
0.0299999993 0.00166666671 0
0.0266666673 0.00166666671 0
0.0233333334 0.00166666671 0
0.0199999996 0.00166666671 0
0.0166666675 0.00166666671 0
0.0133333337 0.00166666671 0
0.00999999978 0.00166666671 0
0.00666666683 0.00166666671 0
0.00333333341 0.00166666671 0
0.0 0.00166666671 0
0.100000001 -0.00166666671 0
0.0966666639 -0.00166666671 0
0.0933333337 -0.00166666671 0
0.0900000036 -0.00166666671 0
0.086666666 -0.00166666671 0
0.0833333358 -0.00166666671 0
0.0799999982 -0.00166666671 0
0.0766666681 -0.00166666671 0
0.0733333305 -0.00166666671 0
0.0700000003 -0.00166666671 0
0.0666666701 -0.00166666671 0
0.0633333325 -0.00166666671 0
0.0599999987 -0.00166666671 0
0.0566666685 -0.00166666671 0
0.0533333346 -0.00166666671 0
0.0500000007 -0.00166666671 0
0.0466666669 -0.00166666671 0
0.043333333 -0.00166666671 0
0.0399999991 -0.00166666671 0
0.0366666652 -0.00166666671 0
0.0333333351 -0.00166666671 0
0.0299999993 -0.00166666671 0
0.0266666673 -0.00166666671 0
0.0233333334 -0.00166666671 0
0.0199999996 -0.00166666671 0
0.0166666675 -0.00166666671 0
0.0133333337 -0.00166666671 0
0.00999999978 -0.00166666671 0
0.00666666683 -0.00166666671 0
0.00333333341 -0.00166666671 0
0.0 -0.00166666671 0
0.100000001 -0.00499999989 0
0.0966666639 -0.00499999989 0
0.0933333337 -0.00499999989 0
0.0900000036 -0.00499999989 0
0.086666666 -0.00499999989 0
0.0833333358 -0.00499999989 0
0.0799999982 -0.00499999989 0
0.0766666681 -0.00499999989 0
0.0733333305 -0.00499999989 0
0.0700000003 -0.00499999989 0
0.0666666701 -0.00499999989 0
0.0633333325 -0.00499999989 0
0.0599999987 -0.00499999989 0
0.0566666685 -0.00499999989 0
0.0533333346 -0.00499999989 0
0.0500000007 -0.00499999989 0
0.0466666669 -0.00499999989 0
0.043333333 -0.00499999989 0
0.0399999991 -0.00499999989 0
0.0366666652 -0.00499999989 0
0.0333333351 -0.00499999989 0
0.0299999993 -0.00499999989 0
0.0266666673 -0.00499999989 0
0.0233333334 -0.00499999989 0
0.0199999996 -0.00499999989 0
0.0166666675 -0.00499999989 0
0.0133333337 -0.00499999989 0
0.00999999978 -0.00499999989 0
0.00666666683 -0.00499999989 0
0.00333333341 -0.00499999989 0
0.0 -0.00499999989 0
0.100000001 -0.00833333377 0
0.0966666639 -0.00833333377 0
0.0933333337 -0.00833333377 0
0.0900000036 -0.00833333377 0
0.086666666 -0.00833333377 0
0.0833333358 -0.00833333377 0
0.0799999982 -0.00833333377 0
0.0766666681 -0.00833333377 0
0.0733333305 -0.00833333377 0
0.0700000003 -0.00833333377 0
0.0666666701 -0.00833333377 0
0.0633333325 -0.00833333377 0
0.0599999987 -0.00833333377 0
0.0566666685 -0.00833333377 0
0.0533333346 -0.00833333377 0
0.0500000007 -0.00833333377 0
0.0466666669 -0.00833333377 0
0.043333333 -0.00833333377 0
0.0399999991 -0.00833333377 0
0.0366666652 -0.00833333377 0
0.0333333351 -0.00833333377 0
0.0299999993 -0.00833333377 0
0.0266666673 -0.00833333377 0
0.0233333334 -0.00833333377 0
0.0199999996 -0.00833333377 0
0.0166666675 -0.00833333377 0
0.0133333337 -0.00833333377 0
0.00999999978 -0.00833333377 0
0.00666666683 -0.00833333377 0
0.00333333341 -0.00833333377 0
0.0 -0.00833333377 0
0.100000001 -0.0116666667 0
0.0966666639 -0.0116666667 0
0.0933333337 -0.0116666667 0
0.0900000036 -0.0116666667 0
0.086666666 -0.0116666667 0
0.0833333358 -0.0116666667 0
0.0799999982 -0.0116666667 0
0.0766666681 -0.0116666667 0
0.0733333305 -0.0116666667 0
0.0700000003 -0.0116666667 0
0.0666666701 -0.0116666667 0
0.0633333325 -0.0116666667 0
0.0599999987 -0.0116666667 0
0.0566666685 -0.0116666667 0
0.0533333346 -0.0116666667 0
0.0500000007 -0.0116666667 0
0.0466666669 -0.0116666667 0
0.043333333 -0.0116666667 0
0.0399999991 -0.0116666667 0
0.0366666652 -0.0116666667 0
0.0333333351 -0.0116666667 0
0.0299999993 -0.0116666667 0
0.0266666673 -0.0116666667 0
0.0233333334 -0.0116666667 0
0.0199999996 -0.0116666667 0
0.0166666675 -0.0116666667 0
0.0133333337 -0.0116666667 0
0.00999999978 -0.0116666667 0
0.00666666683 -0.0116666667 0
0.00333333341 -0.0116666667 0
0.0 -0.0116666667 0
0.100000001 -0.0149999997 0
0.0966666639 -0.0149999997 0
0.0933333337 -0.0149999997 0
0.0900000036 -0.0149999997 0
0.086666666 -0.0149999997 0
0.0833333358 -0.0149999997 0
0.0799999982 -0.0149999997 0
0.0766666681 -0.0149999997 0
0.0733333305 -0.0149999997 0
0.0700000003 -0.0149999997 0
0.0666666701 -0.0149999997 0
0.0633333325 -0.0149999997 0
0.0599999987 -0.0149999997 0
0.0566666685 -0.0149999997 0
0.0533333346 -0.0149999997 0
0.0500000007 -0.0149999997 0
0.0466666669 -0.0149999997 0
0.043333333 -0.0149999997 0
0.0399999991 -0.0149999997 0
0.0366666652 -0.0149999997 0
0.0333333351 -0.0149999997 0
0.0299999993 -0.0149999997 0
0.0266666673 -0.0149999997 0
0.0233333334 -0.0149999997 0
0.0199999996 -0.0149999997 0
0.0166666675 -0.0149999997 0
0.0133333337 -0.0149999997 0
0.00999999978 -0.0149999997 0
0.00666666683 -0.0149999997 0
0.00333333341 -0.0149999997 0
0.0 -0.0149999997 0
0.100000001 -0.0183333326 0
0.0966666639 -0.0183333326 0
0.0933333337 -0.0183333326 0
0.0900000036 -0.0183333326 0
0.086666666 -0.0183333326 0
0.0833333358 -0.0183333326 0
0.0799999982 -0.0183333326 0
0.0766666681 -0.0183333326 0
0.0733333305 -0.0183333326 0
0.0700000003 -0.0183333326 0
0.0666666701 -0.0183333326 0
0.0633333325 -0.0183333326 0
0.0599999987 -0.0183333326 0
0.0566666685 -0.0183333326 0
0.0533333346 -0.0183333326 0
0.0500000007 -0.0183333326 0
0.0466666669 -0.0183333326 0
0.043333333 -0.0183333326 0
0.0399999991 -0.0183333326 0
0.0366666652 -0.0183333326 0
0.0333333351 -0.0183333326 0
0.0299999993 -0.0183333326 0
0.0266666673 -0.0183333326 0
0.0233333334 -0.0183333326 0
0.0199999996 -0.0183333326 0
0.0166666675 -0.0183333326 0
0.0133333337 -0.0183333326 0
0.00999999978 -0.0183333326 0
0.00666666683 -0.0183333326 0
0.00333333341 -0.0183333326 0
0.0 -0.0183333326 0
0.100000001 -0.0216666665 0
0.0966666639 -0.0216666665 0
0.0933333337 -0.0216666665 0
0.0900000036 -0.0216666665 0
0.086666666 -0.0216666665 0
0.0833333358 -0.0216666665 0
0.0799999982 -0.0216666665 0
0.0766666681 -0.0216666665 0
0.0733333305 -0.0216666665 0
0.0700000003 -0.0216666665 0
0.0666666701 -0.0216666665 0
0.0633333325 -0.0216666665 0
0.0599999987 -0.0216666665 0
0.0566666685 -0.0216666665 0
0.0533333346 -0.0216666665 0
0.0500000007 -0.0216666665 0
0.0466666669 -0.0216666665 0
0.043333333 -0.0216666665 0
0.0399999991 -0.0216666665 0
0.0366666652 -0.0216666665 0
0.0333333351 -0.0216666665 0
0.0299999993 -0.0216666665 0
0.0266666673 -0.0216666665 0
0.0233333334 -0.0216666665 0
0.0199999996 -0.0216666665 0
0.0166666675 -0.0216666665 0
0.0133333337 -0.0216666665 0
0.00999999978 -0.0216666665 0
0.00666666683 -0.0216666665 0
0.00333333341 -0.0216666665 0
0.0 -0.0216666665 0
0.100000001 -0.0250000004 0
0.0966666639 -0.0250000004 0
0.0933333337 -0.0250000004 0
0.0900000036 -0.0250000004 0
0.086666666 -0.0250000004 0
0.0833333358 -0.0250000004 0
0.0799999982 -0.0250000004 0
0.0766666681 -0.0250000004 0
0.0733333305 -0.0250000004 0
0.0700000003 -0.0250000004 0
0.0666666701 -0.0250000004 0
0.0633333325 -0.0250000004 0
0.0599999987 -0.0250000004 0
0.0566666685 -0.0250000004 0
0.0533333346 -0.0250000004 0
0.0500000007 -0.0250000004 0
0.0466666669 -0.0250000004 0
0.043333333 -0.0250000004 0
0.0399999991 -0.0250000004 0
0.0366666652 -0.0250000004 0
0.0333333351 -0.0250000004 0
0.0299999993 -0.0250000004 0
0.0266666673 -0.0250000004 0
0.0233333334 -0.0250000004 0
0.0199999996 -0.0250000004 0
0.0166666675 -0.0250000004 0
0.0133333337 -0.0250000004 0
0.00999999978 -0.0250000004 0
0.00666666683 -0.0250000004 0
0.00333333341 -0.0250000004 0
0.0 -0.0250000004 0
0.100000001 -0.0283333343 0
0.0966666639 -0.0283333343 0
0.0933333337 -0.0283333343 0
0.0900000036 -0.0283333343 0
0.086666666 -0.0283333343 0
0.0833333358 -0.0283333343 0
0.0799999982 -0.0283333343 0
0.0766666681 -0.0283333343 0
0.0733333305 -0.0283333343 0
0.0700000003 -0.0283333343 0
0.0666666701 -0.0283333343 0
0.0633333325 -0.0283333343 0
0.0599999987 -0.0283333343 0
0.0566666685 -0.0283333343 0
0.0533333346 -0.0283333343 0
0.0500000007 -0.0283333343 0
0.0466666669 -0.0283333343 0
0.043333333 -0.0283333343 0
0.0399999991 -0.0283333343 0
0.0366666652 -0.0283333343 0
0.0333333351 -0.0283333343 0
0.0299999993 -0.0283333343 0
0.0266666673 -0.0283333343 0
0.0233333334 -0.0283333343 0
0.0199999996 -0.0283333343 0
0.0166666675 -0.0283333343 0
0.0133333337 -0.0283333343 0
0.00999999978 -0.0283333343 0
0.00666666683 -0.0283333343 0
0.00333333341 -0.0283333343 0
0.0 -0.0283333343 0
[...]
POINT_DATA 961
SCALARS Temp float 1
LOOKUP_TABLE default
259.1650791551303
227.37235627201088
206.500981921282
194.28345776274708
187.88751925475464
184.87138071617977
183.57778940090134
183.06791394193564
182.8813256043161
182.81733369532145
182.79659440591053
182.7901969344172
182.78830717636262
182.7877703432506
182.78762513753827
182.78759593850222
182.78762513752918
182.787770343215
182.78830717740325
182.7901969382248
182.79659439165368
182.81733371096644
182.88132571610197
183.0679139117835
183.5777902137302
184.87137942253975
187.88752102601728
194.28345154815543
206.5009842283614
227.37238496355832
259.1650788494012
227.37238708423286
194.50401099719758
172.92404024264184
160.2897834075643
153.67447247918778
150.5542600238859
149.21575675679853
148.68807166776025
148.4949281650569
148.42867589175825
148.4072003382909
148.40057469248578
148.3986172446796
148.39806110702122
148.3979106615014
148.39788040624694
148.3979106614921
148.39806110698422
148.3986172457575
148.4005746964294
148.40720032352692
148.4286759079571
148.49492828077788
148.68807163654847
149.2157575979185
150.5542586854489
153.6744743113602
160.28977698031318
172.92404262816996
194.50404066098167
227.37238676808101
206.5009856759583
172.92401157766682
150.87266340087842
137.95752377042754
131.19204273303575
127.99938119552884
126.62907448829725
126.08856583837287
125.8906271412265
125.8226968371629
125.80066722917654
125.79386772738467
125.79185811400417
125.79128694438913
125.79113238138982
125.79110129089098
125.79113238138024
125.79128694435096
125.791858115111
125.79386773143231
125.800667214029
125.8226968537752
125.8906272598422
126.0885658063853
126.62907534959027
127.99937982559642
131.1920446072075
137.95751719854033
150.87266583882212
172.92404188474316
206.50098535281126
194.28345189556111
160.28974438332753
137.95751354665845
124.87202190899134
118.01353454019191
114.77496620533783
113.3840314062748
112.83501303644695
112.6338225029227
112.56473106576676
112.54231090016656
112.53538675441149
112.53333916134214
112.53275689387581
112.53259925363739
112.53256753363505
112.53259925362752
112.53275689383699
112.53333916247006
112.53538675853417
112.54231088474654
112.56473108266775
112.63382262351642
112.83501300393212
113.38403228077755
114.77496481517302
118.01353644063401
124.87201524830368
137.9575160160207
160.28977507098776
194.283451568233
187.8875214342792
153.67444156055984
131.19204099211518
118.01354321324898
111.1029819586705
107.83798563280367
106.43482810387
105.88062153749712
105.67739353271838
105.60755574496923
105.58487855257563
105.57787059273598
105.57579695588646
105.57520694225924
105.57504712063651
105.57501494963356
105.57504712062655
105.57520694221984
105.57579695702886
105.57787059690948
105.58487853697454
105.6075557620574
105.67739365456322
105.88062150465102
106.4348289862941
107.83798423078998
111.10298387399986
118.01353650336128
131.19204347839388
153.67447244999173
187.88752110473766
184.87138030121233
150.55422631774564
127.99937669532557
114.77497211689113
107.83798281632603
104.55914819891487
103.14937579305169
102.59226651363468
102.38786117838463
102.31757874380779
102.2947440151313
102.28768332630881
102.28559291010053
102.2849977970262
102.28483651206913
102.2848040346097
102.28483651205909
102.28499779698645
102.28559291125222
102.28768333051435
102.29474399941788
102.31757876100889
102.38786130096103
102.59226648059624
103.14937667982359
104.55914679057257
107.83798473931404
114.77496538232327
127.99937918982926
150.55425730365
184.87137997063158
183.5777905515854
149.21572462562494
126.62907164075325
113.38403901219917
106.43482698164061
103.14937750090797
101.73632851896569
101.17772783289195
100.97269527755384
100.90216756611505
100.87924304303309
100.87215137210539
100.87005081790802
100.86945254462474
100.86929033249903
100.86925765792083
100.86929033248883
100.8694525445847
100.87005081906565
100.87215137633001
100.87924302725474
100.9021675833794
100.97269540052507
101.17772779975044
101.73632940792501
103.14937608947436
106.4348289082218
113.38403226635522
126.6290741388973
149.21575565349656
183.5777902205685
183.06791432809413
148.68803872745926
126.08856217836261
112.8350198244395
105.88061958359161
102.59226738817034
101.17772699569777
100.61842084491109
100.41307984009063
100.34242682551327
100.31945472860839
100.31234607222184
100.31023978108851
100.30963966687925
100.30947690076304
100.30944410636096
100.30947690075287
100.3096396668391
100.31023978224943
100.31234607645708
100.31945471279523
100.3424268428105
100.41307996325898
100.6184208117183
101.17772788566909
102.59226597534935
105.88062151172
112.83501307386753
126.08856467798647
148.68806977210545
183.0679139969115
182.88132607390196
148.49489530446357
125.89062356890265
112.63382938280073
105.67739166922118
102.38786214490281
100.97269453189877
100.41307993220221
100.20759853658058
100.13688615192872
100.11389061446188
100.10677327083893
100.10466394101036
100.10406281969594
100.10389974178507
100.10386687863786
100.10389974177482
100.10406281965562
100.10466394217302
100.1067732750797
100.11389059863116
100.13688616924168
100.20759865983995
100.41307989898601
100.97269542230303
102.38786073150634
105.67739359796575
112.63382263039405
125.89062606908455
148.4949263553312
182.8813257426616
182.8173340280142
148.42864288713756
125.82269311926918
112.5647377986123
105.60755373200872
102.31757956033643
100.90216666968392
100.34242676676773
100.13688600092455
100.06614745703126
100.04314116145359
100.0360196698438
100.03390883338763
100.03330719486989
100.033143951786
100.03311105145106
100.03314395177587
100.03330719482976
100.03390883455121
100.03601967408736
100.0431411456147
100.06614747435144
100.13688612422324
100.34242673354134
100.90216756026012
102.31757814671799
105.60755566098196
112.56473104554117
125.82269561964806
148.4286739401659
182.81733369675518
182.79659472267656
148.40716731641885
125.80066349426008
112.54231761601206
105.5848765221077
102.29474481416034
100.87924212892032
100.31945465220313
100.11389044576492
100.04314114377128
100.02013023717903
100.01300689353516
100.01089535724063
100.01029346932661
100.0101301439046
100.01009722461282
100.01013014389439
100.01029346928635
100.01089535840458
100.01300689777989
100.02013022133661
100.0431411610946
100.11389056907926
100.31945461897288
100.8792430195605
102.29474340046163
105.58487845116069
112.54231086271456
125.80066599470439
148.40719837015567
182.7965943914119
182.79019726498538
148.4005416846709
125.7938640071017
112.5353934852598
105.57786857734752
102.28768414057116
100.8721504732511
100.3123460111305
100.1067731174678
100.0360196675029
100.01300690888168
100.00588279008547
100.0037709487557
100.00316894782954
100.00300558377491
100.00297265537861
100.00300558376483
100.00316894778922
100.0037709499199
100.00588279433083
100.01300689303774
100.0360196848273
100.10677324078823
100.31234597789884
100.87215136391373
102.287682726845
105.57787050642688
112.53538673188908
125.7938665075667
148.40057273862854
182.79019693371922
182.78830750497545
148.3985842347692
125.79185439163321
112.5333458900962
105.57579493834733
102.28559372220977
100.87004991687857
100.31023971782372
100.10466378546101
100.03390882886971
100.01089537041025
100.00377094657804
100.00165898023559
100.00105693112813
100.00089355000615
100.00086061749046
100.00089354999602
100.00105693108792
100.00165898139987
100.00377095082362
100.01089535456566
100.03390884619456
100.10466390878354
100.31023968459148
100.87005080754868
102.28559230847479
105.57579686743476
112.53333913670309
125.79185689210446
148.3986152887929
182.78830717370886
182.78777067099614
148.39802809619206
125.79128322109256
112.53276362169593
105.57520492376472
102.28499860817642
100.86945164262724
100.30963960264573
100.10406266317582
100.03330718938128
100.01029348152525
100.00316894468045
100.00105693015685
100.00045486174456
100.00029147353928
100.00025853927343
100.0002914735291
100.00045486170437
100.00105693132114
100.00316894892597
100.01029346568052
100.03330720670631
100.104062786499
100.30963956941332
100.86945253329958
102.2849971944386
105.5752068528546
112.5327568682961
125.79128572156557
148.39805915023453
182.78777033972946
182.78762546537368
148.39787765076008
125.79112865818853
112.53260598155724
105.57504510224055
102.28483732331995
100.8692894306015
100.30947683663055
100.10389958536571
100.03314394639858
100.01013015620462
100.00300558072728
100.00089354913626
100.00029147364057
100.00012808275207
100.00009514780902
100.00012808274181
100.00029147360033
100.00089355030045
100.00300558497274
100.01013014035968
100.03314396372352
100.10389970868901
100.30947680339808
100.86929032127452
102.28483590958128
105.57504703133114
112.53259922815548
125.791131158662
148.39790870480772
182.78762513410692
182.78759626638032
148.39784739554878
125.79109756773477
112.5325742616016
105.57501293128426
102.28480484590807
100.86925675607088
100.3094440422763
100.1038667222665
100.03311104611174
100.01009723696095
100.00297265237894
100.00086061666863
100.00025853942272
100.0000951478571
100.0000622127409
100.00009514784699
100.00025853938251
100.00086061783287
100.00297265662444
100.01009722111591
100.03311106343664
100.10386684558979
100.30944400904369
100.86925764674407
102.28480343216926
105.575014860375
112.53256750819943
125.79110006820831
148.39787844959736
182.7875959351135
182.78762546539951
148.39787765078682
125.79112865821601
112.53260598158528
105.57504510226889
102.28483732334858
100.8692894306304
100.30947683665951
100.10389958539476
100.0331439464277
100.01013015623379
100.0030055807564
100.00089354916534
100.00029147366968
100.00012808278103
100.00009514783815
100.0001280827709
100.00029147362945
100.00089355032951
100.00300558500182
100.01013014038884
100.03314396375256
100.10389970871802
100.30947680342692
100.86929032130344
102.28483590961005
105.57504703135953
112.53259922818349
125.79113115868945
148.39790870483452
182.7876251341328
182.78777067108643
148.39802809628557
125.79128322118859
112.5327636217938
105.57520492386394
102.28499860827665
100.869451642728
100.30963960274683
100.10406266327708
100.03330718948271
100.01029348162673
100.0031689447819
100.00105693025831
100.00045486184604
100.00029147364067
100.0002585393747
100.00029147363034
100.0004548618057
100.00105693142248
100.00316894902737
100.01029346578184
100.03330720680754
100.10406278660007
100.30963956951427
100.86945253340025
102.28499719453878
105.57520685295383
112.53275686839402
125.79128572166161
148.39805915032807
182.78777033981967
182.7883075052951
148.39858423510015
125.7918543919731
112.53334589044253
105.5757949386981
102.2855937225634
100.87004991723407
100.3102397181802
100.10466378581816
100.03390882922714
100.01089537076771
100.0037709469357
100.00165898059309
100.00105693148568
100.00089355036366
100.00086061784789
100.00089355035344
100.00105693144535
100.00165898175733
100.00377095118102
100.0108953549231
100.03390884655187
100.10466390914041
100.31023968494777
100.87005080790397
102.28559230882838
105.5757968677855
112.53333913704928
125.79185689244423
148.39861528912368
182.78830717402835
182.79019726618833
148.40054168591683
125.79386400838045
112.53539348656227
105.57786857866603
102.2876841418999
100.87215047458595
100.31234601246871
100.10677311880772
100.03601966884351
100.01300691022264
100.00588279142673
100.00377095009709
100.00316894917071
100.00300558511614
100.00297265671969
100.00300558510591
100.0031689491304
100.0037709512611
100.0058827956719
100.01300689437872
100.03601968616782
100.10677324212794
100.3123459792368
100.87215136524834
102.28768272817365
105.57787050774527
112.53538673319152
125.79386650884543
148.40057273987443
182.79019693492216
182.79659473344273
148.407167327568
125.80066350569868
112.542317627656
105.58487653388791
102.29474482602477
100.8792421408335
100.31945466414248
100.1138904577173
100.04314115572977
100.02013024914021
100.01300690549738
100.01089536920325
100.0102934812893
100.01013015586732
100.0100972365754
100.01013015585707
100.01029348124897
100.01089537036721
100.0130069097421
100.0201302332977
100.0431411730529
100.11389058103158
100.3194546309121
100.87924303147359
102.29474341232597
105.58487846294075
112.54231087435832
125.80066600614296
148.40719838130477
182.79659440217807
182.81733401968967
148.42864287851813
125.82269311042909
112.56473778961772
105.6075537229134
102.3175795511801
100.90216666049308
100.34242675755904
100.13688599170715
100.0661474478099
100.04314115223052
100.03601966062008
100.0339088241636
100.03330718564578
100.03314394256182
100.03311104222685
100.03314394255165
100.03330718560568
100.03390882532715
100.03601966486357
100.0431411363916
100.06614746513006
100.13688611500578
100.34242672433254
100.90216755106921
102.3175781375615
105.6075556518866
112.56473103654659
125.82269561080781
148.42867393154643
182.81733368843072
182.8813261697799
148.49489540371718
125.8906236706402
112.63382948623672
105.67739177373257
102.38786225004334
100.97269463737945
100.41308003785286
100.20759864230988
100.1368862576919
100.11389072023867
100.10677337662075
100.10466404679418
100.1040629254803
100.10389984756952
100.10386698442244
100.10389984755938
100.10406292544018
100.10466404795686
100.10677338086163
100.11389070440798
100.13688627500498
100.20759876556937
100.41308000463654
100.97269552778357
102.38786083664684
105.67739370247702
112.63382273383003
125.89062617082213
148.49492645458471
182.88132583853948
183.0679142558411
148.68803865267287
126.08856210173279
112.8350197465686
105.88061950494955
102.59226730908716
101.17772691638183
100.61842076548194
100.4130797606105
100.34242674601178
100.31945464909842
100.31234599270873
100.3102397015743
100.30963958736466
100.30947682124851
100.30944402684636
100.30947682123839
100.3096395873246
100.31023970273522
100.31234599694405
100.31945463328523
100.34242676330891
100.41307988377874
100.61842073228907
101.177727806353
102.59226589626601
105.8806214330779
112.83501299599654
126.08856460135682
148.68806969731895
183.06791392465834
183.57779150291523
149.2157256100689
126.62907264881373
113.38404003572879
106.43482801445063
103.14937853881369
101.73632955943677
101.17772887455085
100.97269631972097
100.90216860848439
100.87924408547754
100.87215241457619
100.87005186038755
100.8694535871069
100.86929137498223
100.86925870040409
100.86929137497208
100.86945358706707
100.87005186154516
100.87215241880095
100.87924406969924
100.90216862574857
100.97269644269208
101.17772884140909
101.73633044839588
103.14937712738002
106.43482994103171
113.384033289885
126.62907514695765
149.21575663794025
183.57779117189804
184.87138091662717
150.55422695442155
127.99937734685156
114.77497277786934
107.83798348277509
104.5591488682458
103.14937646376897
102.59226718496421
102.38786184996397
102.317579415482
102.29474468683931
102.28768399802817
102.28559358182345
102.2849984687504
102.28483718379366
102.28480470633436
102.2848371837837
102.28499846871067
102.28559358297534
102.28768400223369
102.29474467112588
102.31757943268306
102.38786197254016
102.59226715192548
103.14937735054063
104.55914745990349
107.83798540576306
114.77496604330145
127.99937984135538
150.5542579403258
184.8713805860463
187.88751909325208
153.674439138967
131.19203851484744
118.01354070104966
111.10297942659909
107.8379830904631
106.43482555668791
105.88061898821981
105.67739098260239
105.60755319454046
105.5848760020374
105.5778680421613
105.57579440530044
105.57520439166954
105.57504457004613
105.57501239904279
105.5750445700361
105.57520439163038
105.57579440644281
105.57786804633473
105.58487598643613
105.60755321162841
105.67739110444703
105.88061895537334
106.43482643911184
107.83798168844928
111.10298134192828
118.01353399116198
131.192041001126
153.6744700283988
187.88751876371046
194.2834569552534
160.2897496160439
137.95751889683476
124.87202733110377
118.01354000204445
114.77497168706415
113.384036897054
112.83501853101178
112.63382799895312
112.56473656232691
112.54231639690693
112.5353922512099
112.53334465815847
112.53276239069734
112.53260475046031
112.53257303045838
112.53260475045052
112.53276239065846
112.53334465928623
112.5353922553325
112.54231638148663
112.56473657922764
112.63382811954642
112.83501849849652
113.38403777155635
114.7749702968989
118.01354190248628
124.87202067041584
137.95752136619677
160.28978030370388
194.28345662792526
206.50098000900516
172.9240057177146
150.87265741140942
137.95751770287887
131.19203662317295
127.99937506495682
126.62906834850466
126.08855969481242
125.89062099623972
125.82269069167128
125.8006610835168
125.79386158167164
125.79185196827505
125.79128079865527
125.79112623565476
125.79109514515538
125.79112623564507
125.7912807986172
125.79185196938174
125.79386158571918
125.80066106836902
125.82269070828364
125.89062111485514
126.08855966282444
126.62906920979727
127.99937369502399
131.19203849734436
137.9575111309913
150.87265984935294
172.92403602479104
206.50097968585814
227.37241110015603
194.5040358269573
172.92406561094808
160.2898090945245
153.6744983351023
150.5542859605841
149.21578272863763
148.68809765364378
148.4949541561482
148.42870188465812
148.4072263317835
148.4006006861632
148.3986432384122
148.39808710076971
148.39793665525403
148.39790640000055
148.39793665524476
148.39808710073262
148.39864323949018
148.4006006901069
148.40722631701965
148.42870190085688
148.49495427186926
148.6880976224317
149.2157835697573
150.5542846221468
153.67450016727457
160.28980266727336
172.92406799647583
194.5040654907406
227.3724107840041
259.16507893364246
227.37235604304925
206.50098168744634
194.2834575261036
187.88751901668414
184.87138047746546
183.57778916192638
183.06791370286416
182.88132536521178
182.81733345620654
182.79659416679254
182.79019669529833
182.78830693724345
182.78777010413157
182.78762489841898
182.7875956993829
182.78762489841006
182.7877701040957
182.78830693828408
182.79019669910588
182.7965941525358
182.81733347185167
182.88132547699766
183.06791367271197
183.57778997475492
184.87137918382547
187.88752078794664
194.28345131151175
206.50098399452565
227.37238473459684
259.1650786279133
