# vtk DataFile Version 2.0
Unstructured Grid Example
ASCII
DATASET UNSTRUCTURED_GRID

POINTS 961 float
0.100000001 0.00499999989 0
0.0966666639 0.00499999989 0
0.0933333337 0.00499999989 0
0.0900000036 0.00499999989 0
0.086666666 0.00499999989 0
0.0833333358 0.00499999989 0
0.0799999982 0.00499999989 0
0.0766666681 0.00499999989 0
0.0733333305 0.00499999989 0
0.0700000003 0.00499999989 0
0.0666666701 0.00499999989 0
0.0633333325 0.00499999989 0
0.0599999987 0.00499999989 0
0.0566666685 0.00499999989 0
0.0533333346 0.00499999989 0
0.0500000007 0.00499999989 0
0.0466666669 0.00499999989 0
0.043333333 0.00499999989 0
0.0399999991 0.00499999989 0
0.0366666652 0.00499999989 0
0.0333333351 0.00499999989 0
0.0299999993 0.00499999989 0
0.0266666673 0.00499999989 0
0.0233333334 0.00499999989 0
0.0199999996 0.00499999989 0
0.0166666675 0.00499999989 0
0.0133333337 0.00499999989 0
0.00999999978 0.00499999989 0
0.00666666683 0.00499999989 0
0.00333333341 0.00499999989 0
0.0 0.00499999989 0
0.100000001 0.00166666671 0
0.0966666639 0.00166666671 0
0.0933333337 0.00166666671 0
0.0900000036 0.00166666671 0
0.086666666 0.00166666671 0
0.0833333358 0.00166666671 0
0.0799999982 0.00166666671 0
0.0766666681 0.00166666671 0
0.0733333305 0.00166666671 0
0.0700000003 0.00166666671 0
0.0666666701 0.00166666671 0
0.0633333325 0.00166666671 0
0.0599999987 0.00166666671 0
0.0566666685 0.00166666671 0
0.0533333346 0.00166666671 0
0.0500000007 0.00166666671 0
0.0466666669 0.00166666671 0
0.043333333 0.00166666671 0
0.0399999991 0.00166666671 0
0.0366666652 0.00166666671 0
0.0333333351 0.00166666671 0
0.0299999993 0.00166666671 0
0.0266666673 0.00166666671 0
0.0233333334 0.00166666671 0
0.0199999996 0.00166666671 0
0.0166666675 0.00166666671 0
0.0133333337 0.00166666671 0
0.00999999978 0.00166666671 0
0.00666666683 0.00166666671 0
0.00333333341 0.00166666671 0
0.0 0.00166666671 0
0.100000001 -0.00166666671 0
0.0966666639 -0.00166666671 0
0.0933333337 -0.00166666671 0
0.0900000036 -0.00166666671 0
0.086666666 -0.00166666671 0
0.0833333358 -0.00166666671 0
0.0799999982 -0.00166666671 0
0.0766666681 -0.00166666671 0
0.0733333305 -0.00166666671 0
0.0700000003 -0.00166666671 0
0.0666666701 -0.00166666671 0
0.0633333325 -0.00166666671 0
0.0599999987 -0.00166666671 0
0.0566666685 -0.00166666671 0
0.0533333346 -0.00166666671 0
0.0500000007 -0.00166666671 0
0.0466666669 -0.00166666671 0
0.043333333 -0.00166666671 0
0.0399999991 -0.00166666671 0
0.0366666652 -0.00166666671 0
0.0333333351 -0.00166666671 0
0.0299999993 -0.00166666671 0
0.0266666673 -0.00166666671 0
0.0233333334 -0.00166666671 0
0.0199999996 -0.00166666671 0
0.0166666675 -0.00166666671 0
0.0133333337 -0.00166666671 0
0.00999999978 -0.00166666671 0
0.00666666683 -0.00166666671 0
0.00333333341 -0.00166666671 0
0.0 -0.00166666671 0
0.100000001 -0.00499999989 0
0.0966666639 -0.00499999989 0
0.0933333337 -0.00499999989 0
0.0900000036 -0.00499999989 0
0.086666666 -0.00499999989 0
0.0833333358 -0.00499999989 0
0.0799999982 -0.00499999989 0
0.0766666681 -0.00499999989 0
0.0733333305 -0.00499999989 0
0.0700000003 -0.00499999989 0
0.0666666701 -0.00499999989 0
0.0633333325 -0.00499999989 0
0.0599999987 -0.00499999989 0
0.0566666685 -0.00499999989 0
0.0533333346 -0.00499999989 0
0.0500000007 -0.00499999989 0
0.0466666669 -0.00499999989 0
0.043333333 -0.00499999989 0
0.0399999991 -0.00499999989 0
0.0366666652 -0.00499999989 0
0.0333333351 -0.00499999989 0
0.0299999993 -0.00499999989 0
0.0266666673 -0.00499999989 0
0.0233333334 -0.00499999989 0
0.0199999996 -0.00499999989 0
0.0166666675 -0.00499999989 0
0.0133333337 -0.00499999989 0
0.00999999978 -0.00499999989 0
0.00666666683 -0.00499999989 0
0.00333333341 -0.00499999989 0
0.0 -0.00499999989 0
0.100000001 -0.00833333377 0
0.0966666639 -0.00833333377 0
0.0933333337 -0.00833333377 0
0.0900000036 -0.00833333377 0
0.086666666 -0.00833333377 0
0.0833333358 -0.00833333377 0
0.0799999982 -0.00833333377 0
0.0766666681 -0.00833333377 0
0.0733333305 -0.00833333377 0
0.0700000003 -0.00833333377 0
0.0666666701 -0.00833333377 0
0.0633333325 -0.00833333377 0
0.0599999987 -0.00833333377 0
0.0566666685 -0.00833333377 0
0.0533333346 -0.00833333377 0
0.0500000007 -0.00833333377 0
0.0466666669 -0.00833333377 0
0.043333333 -0.00833333377 0
0.0399999991 -0.00833333377 0
0.0366666652 -0.00833333377 0
0.0333333351 -0.00833333377 0
0.0299999993 -0.00833333377 0
0.0266666673 -0.00833333377 0
0.0233333334 -0.00833333377 0
0.0199999996 -0.00833333377 0
0.0166666675 -0.00833333377 0
0.0133333337 -0.00833333377 0
0.00999999978 -0.00833333377 0
0.00666666683 -0.00833333377 0
0.00333333341 -0.00833333377 0
0.0 -0.00833333377 0
0.100000001 -0.0116666667 0
0.0966666639 -0.0116666667 0
0.0933333337 -0.0116666667 0
0.0900000036 -0.0116666667 0
0.086666666 -0.0116666667 0
0.0833333358 -0.0116666667 0
0.0799999982 -0.0116666667 0
0.0766666681 -0.0116666667 0
0.0733333305 -0.0116666667 0
0.0700000003 -0.0116666667 0
0.0666666701 -0.0116666667 0
0.0633333325 -0.0116666667 0
0.0599999987 -0.0116666667 0
0.0566666685 -0.0116666667 0
0.0533333346 -0.0116666667 0
0.0500000007 -0.0116666667 0
0.0466666669 -0.0116666667 0
0.043333333 -0.0116666667 0
0.0399999991 -0.0116666667 0
0.0366666652 -0.0116666667 0
0.0333333351 -0.0116666667 0
0.0299999993 -0.0116666667 0
0.0266666673 -0.0116666667 0
0.0233333334 -0.0116666667 0
0.0199999996 -0.0116666667 0
0.0166666675 -0.0116666667 0
0.0133333337 -0.0116666667 0
0.00999999978 -0.0116666667 0
0.00666666683 -0.0116666667 0
0.00333333341 -0.0116666667 0
0.0 -0.0116666667 0
0.100000001 -0.0149999997 0
0.0966666639 -0.0149999997 0
0.0933333337 -0.0149999997 0
0.0900000036 -0.0149999997 0
0.086666666 -0.0149999997 0
0.0833333358 -0.0149999997 0
0.0799999982 -0.0149999997 0
0.0766666681 -0.0149999997 0
0.0733333305 -0.0149999997 0
0.0700000003 -0.0149999997 0
0.0666666701 -0.0149999997 0
0.0633333325 -0.0149999997 0
0.0599999987 -0.0149999997 0
0.0566666685 -0.0149999997 0
0.0533333346 -0.0149999997 0
0.0500000007 -0.0149999997 0
0.0466666669 -0.0149999997 0
0.043333333 -0.0149999997 0
0.0399999991 -0.0149999997 0
0.0366666652 -0.0149999997 0
0.0333333351 -0.0149999997 0
0.0299999993 -0.0149999997 0
0.0266666673 -0.0149999997 0
0.0233333334 -0.0149999997 0
0.0199999996 -0.0149999997 0
0.0166666675 -0.0149999997 0
0.0133333337 -0.0149999997 0
0.00999999978 -0.0149999997 0
0.00666666683 -0.0149999997 0
0.00333333341 -0.0149999997 0
0.0 -0.0149999997 0
0.100000001 -0.0183333326 0
0.0966666639 -0.0183333326 0
0.0933333337 -0.0183333326 0
0.0900000036 -0.0183333326 0
0.086666666 -0.0183333326 0
0.0833333358 -0.0183333326 0
0.0799999982 -0.0183333326 0
0.0766666681 -0.0183333326 0
0.0733333305 -0.0183333326 0
0.0700000003 -0.0183333326 0
0.0666666701 -0.0183333326 0
0.0633333325 -0.0183333326 0
0.0599999987 -0.0183333326 0
0.0566666685 -0.0183333326 0
0.0533333346 -0.0183333326 0
0.0500000007 -0.0183333326 0
0.0466666669 -0.0183333326 0
0.043333333 -0.0183333326 0
0.0399999991 -0.0183333326 0
0.0366666652 -0.0183333326 0
0.0333333351 -0.0183333326 0
0.0299999993 -0.0183333326 0
0.0266666673 -0.0183333326 0
0.0233333334 -0.0183333326 0
0.0199999996 -0.0183333326 0
0.0166666675 -0.0183333326 0
0.0133333337 -0.0183333326 0
0.00999999978 -0.0183333326 0
0.00666666683 -0.0183333326 0
0.00333333341 -0.0183333326 0
0.0 -0.0183333326 0
0.100000001 -0.0216666665 0
0.0966666639 -0.0216666665 0
0.0933333337 -0.0216666665 0
0.0900000036 -0.0216666665 0
0.086666666 -0.0216666665 0
0.0833333358 -0.0216666665 0
0.0799999982 -0.0216666665 0
0.0766666681 -0.0216666665 0
0.0733333305 -0.0216666665 0
0.0700000003 -0.0216666665 0
0.0666666701 -0.0216666665 0
0.0633333325 -0.0216666665 0
0.0599999987 -0.0216666665 0
0.0566666685 -0.0216666665 0
0.0533333346 -0.0216666665 0
0.0500000007 -0.0216666665 0
0.0466666669 -0.0216666665 0
0.043333333 -0.0216666665 0
0.0399999991 -0.0216666665 0
0.0366666652 -0.0216666665 0
0.0333333351 -0.0216666665 0
0.0299999993 -0.0216666665 0
0.0266666673 -0.0216666665 0
0.0233333334 -0.0216666665 0
0.0199999996 -0.0216666665 0
0.0166666675 -0.0216666665 0
0.0133333337 -0.0216666665 0
0.00999999978 -0.0216666665 0
0.00666666683 -0.0216666665 0
0.00333333341 -0.0216666665 0
0.0 -0.0216666665 0
0.100000001 -0.0250000004 0
0.0966666639 -0.0250000004 0
0.0933333337 -0.0250000004 0
0.0900000036 -0.0250000004 0
0.086666666 -0.0250000004 0
0.0833333358 -0.0250000004 0
0.0799999982 -0.0250000004 0
0.0766666681 -0.0250000004 0
0.0733333305 -0.0250000004 0
0.0700000003 -0.0250000004 0
0.0666666701 -0.0250000004 0
0.0633333325 -0.0250000004 0
0.0599999987 -0.0250000004 0
0.0566666685 -0.0250000004 0
0.0533333346 -0.0250000004 0
0.0500000007 -0.0250000004 0
0.0466666669 -0.0250000004 0
0.043333333 -0.0250000004 0
0.0399999991 -0.0250000004 0
0.0366666652 -0.0250000004 0
0.0333333351 -0.0250000004 0
0.0299999993 -0.0250000004 0
0.0266666673 -0.0250000004 0
0.0233333334 -0.0250000004 0
0.0199999996 -0.0250000004 0
0.0166666675 -0.0250000004 0
0.0133333337 -0.0250000004 0
0.00999999978 -0.0250000004 0
0.00666666683 -0.0250000004 0
0.00333333341 -0.0250000004 0
0.0 -0.0250000004 0
0.100000001 -0.0283333343 0
0.0966666639 -0.0283333343 0
0.0933333337 -0.0283333343 0
0.0900000036 -0.0283333343 0
0.086666666 -0.0283333343 0
0.0833333358 -0.0283333343 0
0.0799999982 -0.0283333343 0
0.0766666681 -0.0283333343 0
0.0733333305 -0.0283333343 0
0.0700000003 -0.0283333343 0
0.0666666701 -0.0283333343 0
0.0633333325 -0.0283333343 0
0.0599999987 -0.0283333343 0
0.0566666685 -0.0283333343 0
0.0533333346 -0.0283333343 0
0.0500000007 -0.0283333343 0
0.0466666669 -0.0283333343 0
0.043333333 -0.0283333343 0
0.0399999991 -0.0283333343 0
0.0366666652 -0.0283333343 0
0.0333333351 -0.0283333343 0
0.0299999993 -0.0283333343 0
0.0266666673 -0.0283333343 0
0.0233333334 -0.0283333343 0
0.0199999996 -0.0283333343 0
0.0166666675 -0.0283333343 0
0.0133333337 -0.0283333343 0
0.00999999978 -0.0283333343 0
0.00666666683 -0.0283333343 0
0.00333333341 -0.0283333343 0
0.0 -0.0283333343 0
[...]
POINT_DATA 961
SCALARS Temp float 1
LOOKUP_TABLE default
299.2374099453062
267.48865126614936
244.04549746117345
227.91478122859243
217.58638961327927
211.4307591875632
208.0102604785828
206.23347947613203
205.36777961635158
204.97065621153564
204.7984553773949
204.72759298748522
204.69982054951683
204.68944609229396
204.68583776276262
204.6849734275886
204.68583776251012
204.68944609149003
204.69982056649232
204.72759303417962
204.7984552419311
204.97065632231028
205.36778019631055
206.2334793290175
208.0102628939865
211.43075610298519
217.58639277714204
227.91477202637176
244.04550020737912
267.4886815364183
299.2374096829936
267.488683710667
234.62043782672822
210.34975248953393
193.64878840781705
182.95460159137917
176.58049412569758
173.03830494822842
171.19814978518912
170.3014895189918
169.89012476784345
169.71173163719013
169.63831412754894
169.60953762400132
169.59878714036884
169.59504772744552
169.59415194518806
169.595047727184
169.5987871395357
169.6095376415912
169.63831417592868
169.71173149684847
169.89012488259561
170.30149011971486
171.19814963281033
173.03830744966044
176.58049093148117
182.95460486739907
193.648778879952
210.34975533273735
234.6204691649202
267.488683439148
244.04550185239285
210.34972259950692
185.46551035119472
168.34008608345465
157.3722818475961
150.83381563219092
147.1994967862303
145.31103496501618
144.3906077204011
143.96823150229412
143.785015876979
143.70959430022856
143.6800248175022
143.66897539695023
143.66513116086088
143.664210133557
143.6651311605919
143.66897539609377
143.68002483557856
143.70959434993364
143.78501573282475
143.96823162013274
144.39060833711025
145.31103480859016
147.19949935298678
150.83381235517263
157.37228520772015
168.3400763125377
185.4655132664287
210.34975472825062
244.04550157415483
227.91477233419897
193.6487441774692
168.3400718981509
150.9194221583392
139.76005165284494
133.10562983648217
129.4057587948131
127.48261192404101
126.54495752463649
126.11452278741498
125.92774393670322
125.85082758274805
125.82066120337137
125.80938479799603
125.80546035195108
125.80451990875956
125.8054603516763
125.80938479712181
125.8206612218151
125.85082763344498
125.92774378971859
126.11452290752264
126.54495815297787
127.48261176467524
129.4057614082344
133.10562650074118
139.7600550720493
150.91941221775508
168.34007486332771
193.64877685203297
227.91477205141396
217.58639318756613
182.9545698951817
157.3722808509047
139.7600652307329
128.47537578815505
121.74437602417638
118.000755343521
116.0541966259733
115.1047765379968
114.66877173876372
114.47950033874123
114.40152597415587
114.37093225139273
114.35949156242691
114.35550850196417
114.3545537804189
114.3555085016853
114.35949156153968
114.37093227010078
114.40152602555777
114.47950018976469
114.66877186044889
115.10477717432136
116.0541964645948
118.00075798824084
121.7443726494029
128.47537924616887
139.76005517956028
157.37228384836445
182.95460292071132
217.58639290193221
211.43075766200622
176.58045692356697
150.83380918772832
133.10563796691716
121.74437042154531
114.96605594047155
111.19506810866443
109.23366834512579
108.27668542024695
107.83704903550208
107.64612923319906
107.5674452722253
107.53656098999798
107.5250071387135
107.52098323598123
107.52001849007767
107.52098323569939
107.52500713781728
107.53656100888652
107.56744532410252
107.64612908289564
107.83704915822277
108.27668606173268
109.23366818244962
111.19507077307776
114.96605254139818
121.74437390338932
133.10562784845644
150.83381220464335
176.58049015930524
211.4307573747209
208.0102632069963
173.0382720257142
147.1994948445048
129.4057715642542
118.0007543821286
111.19507280670503
107.4080349312829
105.43779986397682
104.4762430168979
104.0343744316174
103.84242475327306
103.76329022878524
103.73221851732463
103.72059056140455
103.71653955430216
103.71556809774602
103.71653955401838
103.72059056050237
103.73221853633042
103.76329028096613
103.84242460213352
104.03437455497986
104.47624366152561
105.43779970051324
107.40803760732221
111.195069393457
118.00075787766099
129.40576140753527
147.19949787236595
173.03830537890286
208.01026291882323
206.23347996720508
171.19811447997455
145.3110306366917
127.4826222926462
116.0541932068269
109.23367057944164
105.43779737841874
103.46261852954059
102.49845772355212
102.05529541646712
101.8627379367411
101.78333265630998
101.75214629917708
101.74047223979237
101.73640411490129
101.7354283785823
101.73640411461619
101.7404722388864
101.75214631825526
101.7833327086744
101.86273778510348
102.05529554020458
102.4984583699819
103.46261836562704
105.43780006090412
109.23366715843606
116.05419670972717
127.48261211555992
145.31103367031508
171.19814789453517
206.2334796785884
205.36778064790428
170.30145474144902
144.39060396243923
126.54496848899049
115.10477370815258
108.27668825503
104.47624112908203
102.49845832615074
101.53290046553366
101.089030607054
100.89613413321267
100.81657484118277
100.78532199234594
100.77362069031462
100.7695422818785
100.76856394673075
100.76954228159272
100.77362068940646
100.78532201146616
100.81657489365249
100.89613398129451
101.08903073099857
101.53290111293785
102.49845816199499
104.47624381493014
108.27668483003337
115.10477721477825
126.54495830172412
144.39060699891002
170.3014881860969
205.36778035908074
204.9706565376602
169.8900892447639
143.96822699213007
126.1145329921923
114.66876813301793
107.83705109110169
104.03437175798634
102.05529523258761
101.08902981889953
100.64479431931804
100.45171899337912
100.37207672380234
100.34078729685052
100.32907070372053
100.32498641934374
100.32400658199745
100.32498641905754
100.32907070281121
100.34078731599422
100.37207677632927
100.45171884131122
100.64479444337088
101.08903046680143
102.05529506830857
104.03437444548858
107.83704766416963
114.66877164141832
126.11452280013363
143.9682300299261
169.89012270330113
204.9706562487465
204.79845556406437
169.71169596315798
143.78501121751418
125.92775399228131
114.47949657880464
107.64613113461255
103.8424219233053
101.86273759673054
100.89613318840408
100.45171883686652
100.25855412442102
100.17886946565511
100.14756093853255
100.13583618907737
100.13174871070814
100.13076804679825
100.13174871042187
100.13583618816739
100.14756095768865
100.1788695182115
100.2585539722774
100.45171896097291
100.8961338365466
101.86273743239238
103.84242461157685
107.64612770679334
114.47950008800422
125.92774379809009
143.78501425589337
169.71172942775607
204.79845527511344
204.7275933128618
169.63827859453943
143.70958978800047
125.85083778973564
114.40152236642926
107.56744732780322
103.7632875532776
101.78333247159006
100.81657405184662
100.37207672305283
100.17886962153418
100.09916440343872
100.06784640007568
100.05611751354064
100.0520283829837
100.0510472860776
100.05202838269729
100.0561175126303
100.06784641923801
100.09916445600945
100.17886946935423
100.37207684718437
100.81657470009944
101.7833323072249
103.76329024188848
107.56744389959837
114.40152587597008
125.85082759464417
143.70959282662298
169.63831206164718
204.7275930238966
204.69982085410837
169.60950206840067
143.6800202830034
125.8206713881575
114.37092862065238
107.53656302259495
103.7322158184677
101.75214609116124
100.7853211796209
100.34078727274678
100.14756107106177
100.06784637670252
100.03652390398587
100.02479302184696
100.02070307824398
100.01972176551729
100.02070307795742
100.02479302093644
100.036523923151
100.06784642928008
100.14756091886524
100.34078739688937
100.7853218279218
101.75214592678446
103.73221850722085
107.5365595942307
114.37093213033178
125.8206611927045
143.6800233217226
169.60953553649813
204.69982056513783
204.68944638215373
169.59875156910584
143.66897084670651
125.80939496691038
114.35948791539076
107.5250091549499
103.72058784598974
101.74047201520709
100.77361986096271
100.32907066299319
100.13583630497908
100.0561174735268
100.02479300520473
100.01306121212936
100.00897089006938
100.00798947562545
100.00897088978272
100.01306121121854
100.02479302437119
100.05611752610717
100.13583615277527
100.32907078714037
100.77362050928328
101.74047185082557
103.72059053479948
107.52500572652286
114.35949142512376
125.80938477131915
143.66897388546238
169.5987850375752
204.68944609318132
204.68583805448597
169.59501215797525
143.66512661258255
125.80547052294
114.35550485696362
107.52098525430713
103.71653684095591
101.73640389241208
100.76954145461984
100.32498638072158
100.13174882871947
100.0520283450773
100.02070306371003
100.00897089217824
100.00488041015633
100.00389895225014
100.00488040986973
100.00897089126738
100.02070308287688
100.0520283976587
100.13174867651281
100.32498650487058
100.76954210294792
101.73640372802865
103.71653952978656
107.52098182585745
114.3555083667158
125.80546032729966
143.6651296513513
169.59504562657457
204.685837765513
204.68497372053102
169.59411637694743
143.66420558657273
125.80453008108657
114.35455013675949
107.52002050976716
103.71556538576422
101.7354281574684
100.768563120849
100.32400654475666
100.13076816619262
100.05104724955395
100.0197217523666
100.00798947911784
100.00389895363381
100.00291748383823
100.00389895334722
100.00798947820702
100.01972177153363
100.05104730213567
100.13076801398522
100.32400666890605
100.76856376917894
101.73542799308433
103.71556807459994
107.52001708131175
114.35455364651645
125.8045198854341
143.66420862534457
169.59414984557796
204.68497343155784
204.68583805515382
169.59501215866723
143.66512661329406
125.80547052366643
114.35550485770072
107.52098525505198
103.71653684170592
101.73640389316525
100.76954145537492
100.32498638147773
100.13174882947625
100.05202834583436
100.02070306446723
100.00897089293547
100.00488041091371
100.0038989530076
100.00488041062698
100.0089708920248
100.02070308363412
100.05202839841577
100.13174867726966
100.32498650562675
100.76954210370297
101.73640372878168
103.71653953053642
107.52098182660227
114.35550836745303
125.80546032802607
143.66512965206277
169.59504562726676
204.6858377661809
204.68944638404778
169.5987515710688
143.66897084872423
125.80939496896961
114.35948791748027
107.52500915706041
103.72058784811398
101.74047201734
100.77361986310072
100.32907066513407
100.1358363071215
100.05611747566998
100.02479300734836
100.01306121427311
100.0089708922132
100.00798947776917
100.00897089192655
100.01306121336228
100.02479302651473
100.05611752825038
100.13583615491764
100.32907078928118
100.77362051142114
101.74047185295831
103.72059053692362
107.52500572863337
114.35949142721329
125.80938477337841
143.66897388748006
169.59878503953806
204.68944609507548
204.6998208592256
169.60950207370306
143.68002028845248
125.82067139371702
114.3709286262914
107.53656302828823
103.73221582419623
101.75214609691137
100.78532118538371
100.34078727851657
100.14756107683522
100.06784638247785
100.0365239097621
100.02479302762352
100.02070308402067
100.01972177129399
100.02070308373405
100.02479302671293
100.03652392892724
100.06784643505526
100.14756092463867
100.34078740265899
100.78532183368435
101.75214593253445
103.73221851294915
107.53655959992395
114.37093213597076
125.820661198264
143.6800233271715
169.6095355418005
204.69982057025504
204.72759332744775
169.6382786096516
143.70958980352654
125.85083780557116
114.40152238248467
107.56744734400688
103.76328756957585
101.78333248794542
100.81657406823483
100.37207673945879
100.17886963794915
100.0991644198583
100.06784641649735
100.05611752996315
100.05202839940655
100.05104730250045
100.05202839911998
100.05611752905271
100.06784643565943
100.0991644724289
100.17886948576911
100.3720768635901
100.81657471648741
101.78333232358011
103.76329025818652
107.5674439158019
114.40152589202546
125.85082761047967
143.70959284214896
169.6383120767594
204.72759303848247
204.79845566388698
169.71169606657423
143.7850113237369
125.9277541005855
114.47949668857197
107.64613124535283
103.84242203465763
101.8627377084468
100.89613330032496
100.45171894889624
100.25855423650562
100.17886957776608
100.14756105065555
100.13583630120542
100.13174882283815
100.13076815892862
100.1317488225518
100.1358363002952
100.14756106981143
100.1788696303223
100.25855408436193
100.45171907300247
100.89613394846738
101.8627375441085
103.8424247229291
107.64612781753357
114.47950019777129
125.92774390639423
143.78501436211596
169.71172953117218
204.7984553749362
204.97065647490672
169.89008917975534
143.96822692536878
126.11453292413933
114.66876806406414
107.83705102155447
104.0343716880699
102.05529516245433
101.08902974864596
100.64479424900124
100.45171892303104
100.3720766534394
100.34078722648084
100.32907063334797
100.32498634897003
100.32400651162345
100.32498634868374
100.32907063243859
100.34078724562451
100.3720767059662
100.45171877096301
100.6447943730541
101.0890303965478
102.05529499817531
104.03437437557207
107.83704759462226
114.66877157246446
126.11452273208059
143.96822996316482
169.8901226382925
204.97065618599296
205.36778115016398
170.30145526169284
144.3906044965321
126.54496903316398
115.10477425924755
108.27668881060178
104.47624168738093
102.49845888601463
101.53290102624452
101.08903116819758
100.89613469456557
100.81657540263166
100.78532255383664
100.77362125182259
100.7695428433929
100.76856450824697
100.76954284310736
100.7736212509145
100.78532257295691
100.81657545510136
100.89613454264746
101.08903129214215
101.53290167364868
102.49845872185882
104.47624437322904
108.2766853856051
115.10477776587312
126.54495884589772
144.3906075330029
170.3014887063406
205.36778086134066
206.23347965801992
171.19811415973925
145.31103030798837
127.48262195781969
116.0541928678304
109.23367023777386
105.4377970351417
103.46261818535145
102.49845737887586
102.05529507154532
101.86273759170206
101.78333231121805
101.75214595406246
101.74047189466842
101.73640376977391
101.73542803345404
101.73640376948887
101.7404718937626
101.75214597314057
101.78333236358257
101.8627374400647
102.05529519528277
102.49845802530545
103.46261802143785
105.43779971762707
109.23366681676823
116.05419637073055
127.48261178073332
145.31103334161202
171.19814757429972
206.2334793694031
208.0102660468847
173.03827496675493
147.19949786236447
129.4057746370003
118.00075749169682
111.1950759394482
107.40803807771236
105.43780301799738
104.47624617487999
104.03437759154903
103.8424279141115
103.76329339002405
103.73222167873105
103.72059372287785
103.71654271580012
103.71557125925017
103.71654271551635
103.72059372197575
103.73222169773695
103.76329344220483
103.84242776297201
104.03437771491124
104.47624681950755
105.43780285453359
107.40804075375148
111.19507252620015
118.00076098722914
129.40576448028133
147.19950089022532
173.0383083199434
208.01026575871137
211.43075897963007
176.5804582879784
150.83381058738252
133.10563939147815
121.74437186259057
114.96605739172848
111.19506956584556
109.2336698055302
108.2766868822999
107.83705049834958
107.64613069640886
107.5674467355916
107.53656245342843
107.52500860216922
107.52098469944607
107.52001995354479
107.52098469916432
107.52500860127317
107.53656247231713
107.56744678746858
107.64613054610516
107.83705062107022
108.27668752378528
109.23366964285378
111.19507223025856
114.96605399265506
121.74437534443462
133.10562927301734
150.83381360429746
176.58049152371638
211.43075869234445
217.58638886180492
182.95456541602556
157.37227625662408
139.76006055548862
128.47537105965134
121.7443712629166
118.00075056341183
116.05419183569906
115.10477174257252
114.66876694088116
114.47949553974962
114.40152117468958
114.37092745173318
114.35948676269247
114.35550370220302
114.35454898065113
114.35550370192414
114.35948676180531
114.37092747044116
114.40152122609145
114.47949539077288
114.66876706256613
115.10477237889684
116.05419167432015
118.00075320813154
121.74436788814293
128.47537451766513
139.76005050431596
157.37227925408368
182.95459844155533
217.586388576171
227.9147796775745
193.64875178067393
168.34007969521406
150.91943009066478
139.76005967328385
133.10563791050032
129.4057668992747
127.48262004469854
126.54496565338385
126.1145309199683
125.92775207094941
125.85083571770828
125.82066933861817
125.80939293335254
125.80546848734645
125.80452804416451
125.80546848707174
125.80939293247818
125.82066935706185
125.85083576840495
125.9277519239645
126.11453104007592
126.54496628172502
127.48261988533257
129.40576951269563
133.10563457475897
139.76006309248794
150.9194201500804
168.34008266039064
193.64878445523712
227.9147793947892
244.04549483247786
210.34971533159077
185.46550289901154
168.34007850341752
157.3722741848469
150.83380791955383
147.19948904550304
145.3110272094903
144.39059995755866
143.9682237360452
143.78500810923111
143.7095865318548
143.68001704887965
143.66896762823362
143.66512339211107
143.66420236479922
143.66512339184203
143.66896762737707
143.68001706695597
143.7095865815597
143.78500796507674
143.9682238538837
144.39060057426775
145.31102705306395
147.19949161225915
150.83380464253506
157.37227754497067
168.3400687325001
185.4655058142451
210.34974746033447
244.04549455423975
267.4887090458553
234.62046405572286
210.34977938016488
193.64881575524183
182.95462923250946
176.5805219427284
173.03833286353293
171.1981777518402
170.3015175108127
169.89015277128243
169.71175964569858
169.63834213815628
169.60956563543647
169.59881515211487
169.5950757393002
169.5941799570688
169.59507573903863
169.59881515128157
169.60956565302635
169.63834218653602
169.71175950535715
169.89015288603477
170.30151811153584
171.19817759946127
173.03833536496464
176.58051874851174
182.95463250852927
193.6488062273766
210.34978222336787
234.62049539391361
267.48870877433615
299.2374097947893
267.48865111035656
244.04549730154434
227.91478106637894
217.586389449456
211.43075902281188
208.01026031333583
206.2334793106386
205.36777945074417
204.9706560458787
204.79845521171765
204.72759282180047
204.69982038382915
204.6894459266052
204.68583759707334
204.68497326189953
204.68583759682113
204.68944592580124
204.6998204008045
204.72759286849472
204.79845507625407
204.9706561566534
205.36778003070336
206.23347916352412
208.01026272873935
211.43075593823374
217.58639261331857
227.9147718641582
244.04550004774973
267.4886813806253
299.2374095324765
