# vtk DataFile Version 2.0
Unstructured Grid Example
ASCII
DATASET UNSTRUCTURED_GRID

POINTS 961 float
0.100000001 0.00499999989 0
0.0966666639 0.00499999989 0
0.0933333337 0.00499999989 0
0.0900000036 0.00499999989 0
0.086666666 0.00499999989 0
0.0833333358 0.00499999989 0
0.0799999982 0.00499999989 0
0.0766666681 0.00499999989 0
0.0733333305 0.00499999989 0
0.0700000003 0.00499999989 0
0.0666666701 0.00499999989 0
0.0633333325 0.00499999989 0
0.0599999987 0.00499999989 0
0.0566666685 0.00499999989 0
0.0533333346 0.00499999989 0
0.0500000007 0.00499999989 0
0.0466666669 0.00499999989 0
0.043333333 0.00499999989 0
0.0399999991 0.00499999989 0
0.0366666652 0.00499999989 0
0.0333333351 0.00499999989 0
0.0299999993 0.00499999989 0
0.0266666673 0.00499999989 0
0.0233333334 0.00499999989 0
0.0199999996 0.00499999989 0
0.0166666675 0.00499999989 0
0.0133333337 0.00499999989 0
0.00999999978 0.00499999989 0
0.00666666683 0.00499999989 0
0.00333333341 0.00499999989 0
0.0 0.00499999989 0
0.100000001 0.00166666671 0
0.0966666639 0.00166666671 0
0.0933333337 0.00166666671 0
0.0900000036 0.00166666671 0
0.086666666 0.00166666671 0
0.0833333358 0.00166666671 0
0.0799999982 0.00166666671 0
0.0766666681 0.00166666671 0
0.0733333305 0.00166666671 0
0.0700000003 0.00166666671 0
0.0666666701 0.00166666671 0
0.0633333325 0.00166666671 0
0.0599999987 0.00166666671 0
0.0566666685 0.00166666671 0
0.0533333346 0.00166666671 0
0.0500000007 0.00166666671 0
0.0466666669 0.00166666671 0
0.043333333 0.00166666671 0
0.0399999991 0.00166666671 0
0.0366666652 0.00166666671 0
0.0333333351 0.00166666671 0
0.0299999993 0.00166666671 0
0.0266666673 0.00166666671 0
0.0233333334 0.00166666671 0
0.0199999996 0.00166666671 0
0.0166666675 0.00166666671 0
0.0133333337 0.00166666671 0
0.00999999978 0.00166666671 0
0.00666666683 0.00166666671 0
0.00333333341 0.00166666671 0
0.0 0.00166666671 0
0.100000001 -0.00166666671 0
0.0966666639 -0.00166666671 0
0.0933333337 -0.00166666671 0
0.0900000036 -0.00166666671 0
0.086666666 -0.00166666671 0
0.0833333358 -0.00166666671 0
0.0799999982 -0.00166666671 0
0.0766666681 -0.00166666671 0
0.0733333305 -0.00166666671 0
0.0700000003 -0.00166666671 0
0.0666666701 -0.00166666671 0
0.0633333325 -0.00166666671 0
0.0599999987 -0.00166666671 0
0.0566666685 -0.00166666671 0
0.0533333346 -0.00166666671 0
0.0500000007 -0.00166666671 0
0.0466666669 -0.00166666671 0
0.043333333 -0.00166666671 0
0.0399999991 -0.00166666671 0
0.0366666652 -0.00166666671 0
0.0333333351 -0.00166666671 0
0.0299999993 -0.00166666671 0
0.0266666673 -0.00166666671 0
0.0233333334 -0.00166666671 0
0.0199999996 -0.00166666671 0
0.0166666675 -0.00166666671 0
0.0133333337 -0.00166666671 0
0.00999999978 -0.00166666671 0
0.00666666683 -0.00166666671 0
0.00333333341 -0.00166666671 0
0.0 -0.00166666671 0
0.100000001 -0.00499999989 0
0.0966666639 -0.00499999989 0
0.0933333337 -0.00499999989 0
0.0900000036 -0.00499999989 0
0.086666666 -0.00499999989 0
0.0833333358 -0.00499999989 0
0.0799999982 -0.00499999989 0
0.0766666681 -0.00499999989 0
0.0733333305 -0.00499999989 0
0.0700000003 -0.00499999989 0
0.0666666701 -0.00499999989 0
0.0633333325 -0.00499999989 0
0.0599999987 -0.00499999989 0
0.0566666685 -0.00499999989 0
0.0533333346 -0.00499999989 0
0.0500000007 -0.00499999989 0
0.0466666669 -0.00499999989 0
0.043333333 -0.00499999989 0
0.0399999991 -0.00499999989 0
0.0366666652 -0.00499999989 0
0.0333333351 -0.00499999989 0
0.0299999993 -0.00499999989 0
0.0266666673 -0.00499999989 0
0.0233333334 -0.00499999989 0
0.0199999996 -0.00499999989 0
0.0166666675 -0.00499999989 0
0.0133333337 -0.00499999989 0
0.00999999978 -0.00499999989 0
0.00666666683 -0.00499999989 0
0.00333333341 -0.00499999989 0
0.0 -0.00499999989 0
0.100000001 -0.00833333377 0
0.0966666639 -0.00833333377 0
0.0933333337 -0.00833333377 0
0.0900000036 -0.00833333377 0
0.086666666 -0.00833333377 0
0.0833333358 -0.00833333377 0
0.0799999982 -0.00833333377 0
0.0766666681 -0.00833333377 0
0.0733333305 -0.00833333377 0
0.0700000003 -0.00833333377 0
0.0666666701 -0.00833333377 0
0.0633333325 -0.00833333377 0
0.0599999987 -0.00833333377 0
0.0566666685 -0.00833333377 0
0.0533333346 -0.00833333377 0
0.0500000007 -0.00833333377 0
0.0466666669 -0.00833333377 0
0.043333333 -0.00833333377 0
0.0399999991 -0.00833333377 0
0.0366666652 -0.00833333377 0
0.0333333351 -0.00833333377 0
0.0299999993 -0.00833333377 0
0.0266666673 -0.00833333377 0
0.0233333334 -0.00833333377 0
0.0199999996 -0.00833333377 0
0.0166666675 -0.00833333377 0
0.0133333337 -0.00833333377 0
0.00999999978 -0.00833333377 0
0.00666666683 -0.00833333377 0
0.00333333341 -0.00833333377 0
0.0 -0.00833333377 0
0.100000001 -0.0116666667 0
0.0966666639 -0.0116666667 0
0.0933333337 -0.0116666667 0
0.0900000036 -0.0116666667 0
0.086666666 -0.0116666667 0
0.0833333358 -0.0116666667 0
0.0799999982 -0.0116666667 0
0.0766666681 -0.0116666667 0
0.0733333305 -0.0116666667 0
0.0700000003 -0.0116666667 0
0.0666666701 -0.0116666667 0
0.0633333325 -0.0116666667 0
0.0599999987 -0.0116666667 0
0.0566666685 -0.0116666667 0
0.0533333346 -0.0116666667 0
0.0500000007 -0.0116666667 0
0.0466666669 -0.0116666667 0
0.043333333 -0.0116666667 0
0.0399999991 -0.0116666667 0
0.0366666652 -0.0116666667 0
0.0333333351 -0.0116666667 0
0.0299999993 -0.0116666667 0
0.0266666673 -0.0116666667 0
0.0233333334 -0.0116666667 0
0.0199999996 -0.0116666667 0
0.0166666675 -0.0116666667 0
0.0133333337 -0.0116666667 0
0.00999999978 -0.0116666667 0
0.00666666683 -0.0116666667 0
0.00333333341 -0.0116666667 0
0.0 -0.0116666667 0
0.100000001 -0.0149999997 0
0.0966666639 -0.0149999997 0
0.0933333337 -0.0149999997 0
0.0900000036 -0.0149999997 0
0.086666666 -0.0149999997 0
0.0833333358 -0.0149999997 0
0.0799999982 -0.0149999997 0
0.0766666681 -0.0149999997 0
0.0733333305 -0.0149999997 0
0.0700000003 -0.0149999997 0
0.0666666701 -0.0149999997 0
0.0633333325 -0.0149999997 0
0.0599999987 -0.0149999997 0
0.0566666685 -0.0149999997 0
0.0533333346 -0.0149999997 0
0.0500000007 -0.0149999997 0
0.0466666669 -0.0149999997 0
0.043333333 -0.0149999997 0
0.0399999991 -0.0149999997 0
0.0366666652 -0.0149999997 0
0.0333333351 -0.0149999997 0
0.0299999993 -0.0149999997 0
0.0266666673 -0.0149999997 0
0.0233333334 -0.0149999997 0
0.0199999996 -0.0149999997 0
0.0166666675 -0.0149999997 0
0.0133333337 -0.0149999997 0
0.00999999978 -0.0149999997 0
0.00666666683 -0.0149999997 0
0.00333333341 -0.0149999997 0
0.0 -0.0149999997 0
0.100000001 -0.0183333326 0
0.0966666639 -0.0183333326 0
0.0933333337 -0.0183333326 0
0.0900000036 -0.0183333326 0
0.086666666 -0.0183333326 0
0.0833333358 -0.0183333326 0
0.0799999982 -0.0183333326 0
0.0766666681 -0.0183333326 0
0.0733333305 -0.0183333326 0
0.0700000003 -0.0183333326 0
0.0666666701 -0.0183333326 0
0.0633333325 -0.0183333326 0
0.0599999987 -0.0183333326 0
0.0566666685 -0.0183333326 0
0.0533333346 -0.0183333326 0
0.0500000007 -0.0183333326 0
0.0466666669 -0.0183333326 0
0.043333333 -0.0183333326 0
0.0399999991 -0.0183333326 0
0.0366666652 -0.0183333326 0
0.0333333351 -0.0183333326 0
0.0299999993 -0.0183333326 0
0.0266666673 -0.0183333326 0
0.0233333334 -0.0183333326 0
0.0199999996 -0.0183333326 0
0.0166666675 -0.0183333326 0
0.0133333337 -0.0183333326 0
0.00999999978 -0.0183333326 0
0.00666666683 -0.0183333326 0
0.00333333341 -0.0183333326 0
0.0 -0.0183333326 0
0.100000001 -0.0216666665 0
0.0966666639 -0.0216666665 0
0.0933333337 -0.0216666665 0
0.0900000036 -0.0216666665 0
0.086666666 -0.0216666665 0
0.0833333358 -0.0216666665 0
0.0799999982 -0.0216666665 0
0.0766666681 -0.0216666665 0
0.0733333305 -0.0216666665 0
0.0700000003 -0.0216666665 0
0.0666666701 -0.0216666665 0
0.0633333325 -0.0216666665 0
0.0599999987 -0.0216666665 0
0.0566666685 -0.0216666665 0
0.0533333346 -0.0216666665 0
0.0500000007 -0.0216666665 0
0.0466666669 -0.0216666665 0
0.043333333 -0.0216666665 0
0.0399999991 -0.0216666665 0
0.0366666652 -0.0216666665 0
0.0333333351 -0.0216666665 0
0.0299999993 -0.0216666665 0
0.0266666673 -0.0216666665 0
0.0233333334 -0.0216666665 0
0.0199999996 -0.0216666665 0
0.0166666675 -0.0216666665 0
0.0133333337 -0.0216666665 0
0.00999999978 -0.0216666665 0
0.00666666683 -0.0216666665 0
0.00333333341 -0.0216666665 0
0.0 -0.0216666665 0
0.100000001 -0.0250000004 0
0.0966666639 -0.0250000004 0
0.0933333337 -0.0250000004 0
0.0900000036 -0.0250000004 0
0.086666666 -0.0250000004 0
0.0833333358 -0.0250000004 0
0.0799999982 -0.0250000004 0
0.0766666681 -0.0250000004 0
0.0733333305 -0.0250000004 0
0.0700000003 -0.0250000004 0
0.0666666701 -0.0250000004 0
0.0633333325 -0.0250000004 0
0.0599999987 -0.0250000004 0
0.0566666685 -0.0250000004 0
0.0533333346 -0.0250000004 0
0.0500000007 -0.0250000004 0
0.0466666669 -0.0250000004 0
0.043333333 -0.0250000004 0
0.0399999991 -0.0250000004 0
0.0366666652 -0.0250000004 0
0.0333333351 -0.0250000004 0
0.0299999993 -0.0250000004 0
0.0266666673 -0.0250000004 0
0.0233333334 -0.0250000004 0
0.0199999996 -0.0250000004 0
0.0166666675 -0.0250000004 0
0.0133333337 -0.0250000004 0
0.00999999978 -0.0250000004 0
0.00666666683 -0.0250000004 0
0.00333333341 -0.0250000004 0
0.0 -0.0250000004 0
0.100000001 -0.0283333343 0
0.0966666639 -0.0283333343 0
0.0933333337 -0.0283333343 0
0.0900000036 -0.0283333343 0
0.086666666 -0.0283333343 0
0.0833333358 -0.0283333343 0
0.0799999982 -0.0283333343 0
0.0766666681 -0.0283333343 0
0.0733333305 -0.0283333343 0
0.0700000003 -0.0283333343 0
0.0666666701 -0.0283333343 0
0.0633333325 -0.0283333343 0
0.0599999987 -0.0283333343 0
0.0566666685 -0.0283333343 0
0.0533333346 -0.0283333343 0
0.0500000007 -0.0283333343 0
0.0466666669 -0.0283333343 0
0.043333333 -0.0283333343 0
0.0399999991 -0.0283333343 0
0.0366666652 -0.0283333343 0
0.0333333351 -0.0283333343 0
0.0299999993 -0.0283333343 0
0.0266666673 -0.0283333343 0
0.0233333334 -0.0283333343 0
0.0199999996 -0.0283333343 0
0.0166666675 -0.0283333343 0
0.0133333337 -0.0283333343 0
0.00999999978 -0.0283333343 0
0.00666666683 -0.0283333343 0
0.00333333341 -0.0283333343 0
0.0 -0.0283333343 0
[...]
POINT_DATA 961
SCALARS Temp float 1
LOOKUP_TABLE default
341.08465853432114
309.9524768074802
285.1986676018489
266.39017006884905
252.75370950386517
243.32813107112506
237.11878212061384
233.2194312501529
230.88377397289665
229.54812059829212
228.8180782921686
228.43625828690546
228.24516557377555
228.15423834830557
228.11489422950626
228.10402684480943
228.11489422633906
228.15423833995794
228.24516570294375
228.43625856300898
228.8180776401968
229.54812101549888
230.88377568818598
233.21943083947764
237.11878688887379
243.32812583990804
252.7537139625808
266.3901586052989
285.19867063794294
309.95250759653175
341.0846583799497
309.95250968531434
277.69173627438533
252.04019627954958
232.5492183064789
218.4176209320819
208.64953298266656
202.21434345870205
198.17302637727718
195.75223990430302
194.36784784379998
193.6111328875057
193.2153448550151
193.017252300371
192.9229901041358
192.88220134017394
192.87093464843838
192.8822013368903
192.9229900954818
193.01725243427325
193.21534514122445
193.61113221169677
194.3678482762402
195.75224168214262
198.1730259516322
202.21434840046734
208.64952756125552
218.4176255527496
232.5492064268236
252.0401994257819
277.691768179817
309.9525095253697
285.19867230798013
252.04016613775676
225.67378104295204
205.63860958492887
191.11152953236063
181.06931524907685
174.45295695758992
170.297461356431
167.8080161076283
166.38419707198395
165.60583724476632
165.19867709949006
164.99486670459902
164.8978715352035
164.85589557573385
164.84430016578233
164.8558955723544
164.8978715262976
164.9948668423737
165.1986773939378
165.6058365495791
166.3841975167666
167.80801793598255
170.2974609187103
174.45296203870288
181.069309675239
191.1115342825024
205.6385973731906
225.67378427694752
252.04019893167543
285.19867214364854
266.3901587875552
232.54917087538183
205.6385924509059
185.18839354540702
170.35902757997337
160.1067327076319
153.35111377718243
149.10755635476022
146.56496320314682
145.1105049543935
144.31525558207122
143.89918410822193
143.69087389637448
143.5917189625943
143.5488014114456
143.53694470362748
143.5488014079899
143.59171895348882
143.69087403720226
143.8991844091364
144.31525487172735
145.1105054087873
146.56496507067075
149.1075559076894
153.35111896557135
160.1067270167731
170.35903242919528
185.18838108011622
205.63859575177545
232.54920434521958
266.39015861993556
252.75371428478797
218.41758962237878
191.11152943404554
170.359045228857
155.3089028321301
144.90267402687152
138.04463292241564
133.73603959434593
131.1540179667745
129.67671994869957
128.86881662319905
128.4460336840154
128.2343165415276
128.13351799368826
128.08988068949614
128.07782369702377
128.08988068598205
128.1335179844304
128.23431668467228
128.44603398981027
128.86881590146695
129.67672041027566
131.1540198634181
133.73603914033612
138.04463818985084
144.90266825008027
155.30890775382176
170.35903257863015
191.1115327835703
218.41762358301105
252.75371411482442
243.32812811522828
208.64949329223055
181.06930685562048
160.10674206802852
144.902665431125
134.38869346142897
127.45864721062131
123.10410719758836
120.49408084840837
119.00046768347873
118.18347092022093
117.75583499727166
117.54163885510415
117.4396370688268
117.39547007994139
117.38326521452768
117.39547007638411
117.43963705945687
117.5416389999388
117.75583530660425
118.18347019027699
119.00046815020089
120.49408276578698
123.10410673864851
127.4586525337515
134.38868762433594
144.90267040343352
160.10672928906132
181.069310238917
208.64952759271316
243.32812794367788
237.11878708876816
202.21431174111285
174.45295697323462
153.3511318433895
138.04463304308948
127.45865607821523
120.48024516108543
116.09466944576229
113.4656103842447
111.96083612625277
111.13757557905083
110.70657288437731
110.49064446922988
110.38779598160475
110.34325400227556
110.33094406022546
110.34325399868759
110.38779597215553
110.49064461524938
110.70657319617133
111.13757484342777
111.96083659650733
113.46561231575576
116.0946689834708
120.48025052172062
127.45865020070421
138.0446380491436
153.35111897891883
174.45296037888593
202.2143462659424
237.11878691619737
233.2194318430022
198.17298997448725
170.29745668796568
149.10756971367152
133.73603485890408
123.10411119569287
116.09466450213147
111.68904767310747
109.04761387563717
107.5355294373013
106.70813447688103
106.27489168167838
106.05780129844851
105.95438037869887
105.9095831528709
105.8972013893533
105.90958314926188
105.95438036919563
106.05780144526557
106.27489199511527
106.70813373749304
107.53552990987838
109.04761581636694
111.68904720863591
116.09466988690221
123.10410529230644
133.73603988643353
149.10755679501793
170.29746010773064
198.17302464052707
233.2194316698082
230.8837763417247
195.75220525180598
167.80801331922103
146.56497852824268
131.15401518157915
120.49408684134588
113.46560742580515
109.04761588408714
106.39848366204244
104.88181480480945
104.0518049534006
103.61713283446365
103.39929438876838
103.2955017370924
103.2505375154823
103.2381085473755
103.25053751185955
103.29550172755394
103.39929453610068
103.61713314895276
104.05180421161965
104.88181527884913
106.39848560852772
109.0476154182588
113.46561282542342
120.49408092213244
131.1540202221598
146.564965576813
167.80801674748938
195.75224000264123
230.88377616816888
229.54812089690816
194.3678109937305
166.38419206939216
145.1105180442801
129.67671486641225
119.00047136769864
111.96083082772734
107.53552910255316
104.88181245105146
103.3623898652124
102.5307948998331
102.09524806522272
101.87694737522362
101.77292285928152
101.72785363289002
101.71539483668646
101.72785362925863
101.7729228497211
101.87694752287562
102.09524838035814
102.53079415659397
103.36239034013478
104.88181440097743
107.53552863591685
111.96083623608129
119.0004654392296
129.67671991457257
145.11050507390922
166.38419550255387
194.36784579318658
229.5481207231526
228.81807795574886
193.61109535076173
165.6058315609345
144.3152679904618
128.86881083354592
118.18347389656644
111.1375695590995
106.70813342156912
104.05180187468656
102.53079417584416
101.69827789462566
101.26221748704025
101.04364259362812
100.93947915722481
100.89434647690096
100.88186956149602
100.89434647326426
100.93947914765108
101.04364274147076
101.26221780255673
101.69827715053415
102.5307946512772
104.05180382658308
106.70813295447208
111.1375749723734
118.18346796291829
128.86881588591723
144.31525500962303
165.60583499678842
193.61113017686807
228.81807778188778
228.4362586547187
193.21530803335108
165.19867216442663
143.8991972894367
128.44602867168163
117.75583876382785
110.70656765647823
106.27489142494804
103.61713055579641
102.09524814417767
101.26221829137747
100.8258685652053
100.60713753095003
100.50289415957471
100.45772464045861
100.44523714862126
100.4577246368189
100.50289414999328
100.60713767890182
100.82586888093746
101.26221754680812
102.09524861989368
103.61713250877476
106.27489095759898
110.70657307240646
117.75583282740453
128.44603372629263
143.89918430306025
165.19867560169823
193.21534287343673
228.43625848080492
228.2451658407681
193.01721536671852
164.99486166094084
143.69088697052294
128.234311416392
117.54164250962586
110.49063912619128
106.05780092725436
103.3992919946662
101.87694733920485
101.04364328310777
100.60713741573691
100.38832118566285
100.28403373360203
100.2388437145817
100.22635030487376
100.23884371094032
100.2840337240163
100.38832133367424
100.60713773158602
101.04364253828166
101.87694781507125
103.39929394821313
106.05780045977349
110.4906445434902
117.54163657177904
128.2343164721431
143.6908739813429
164.994865098927
193.01725021382148
228.24516566682883
228.15423849829813
192.92295304562433
164.897866366222
143.5917319105087
128.13351273829693
117.43964059254236
110.38779050558928
105.95437987441508
103.29549920912746
101.77292268944869
100.93947971284078
100.50289391025322
100.28403359945833
100.17972310484525
100.1345222760178
100.12202572934478
100.1345222723753
100.17972309525716
100.28403374750076
100.5028942261623
100.93947896788374
101.77292316539088
103.29550116295813
105.95437940686875
110.38779592356057
117.43963465400175
128.13351779459958
143.59171891997943
164.89786980455034
192.9229878960757
228.15423832434757
228.11489439735098
192.88216429862118
164.85589042556998
143.5488143794146
128.0898754536451
117.39547362386968
110.34324854615674
105.90958266887097
103.25053500773873
101.72785348347891
100.89434705302405
100.45772441159389
100.23884360091284
100.1345222965107
100.08931635906517
100.07681832333522
100.0893163554223
100.1345222869214
100.2388437489696
100.45772472753058
100.89434630800682
101.72785395945546
103.25053696169738
105.90958220129514
110.34325396442678
117.39546768502265
128.08988051018986
143.54880138829583
164.8558938640473
192.8821991505254
228.1148942233955
228.1040270278466
192.87089762220808
164.84429503176557
143.5369576883345
128.0778184779572
117.38326877556848
110.33093862123035
105.89720092265414
103.23810605695998
101.71539470468862
100.88187015507395
100.44523693720708
100.2263502086663
100.1220257673074
100.07681834080631
100.06431986990388
100.07681833716339
100.12202575771776
100.22635035672721
100.44523725315177
100.88186941003958
101.71539518067493
103.23810801095466
105.89720045506992
110.33094403958418
117.38326283663568
128.0778235345694
143.5369446970518
164.8442984702842
192.87093247451392
228.10402685389
228.1148944047222
192.88216430626295
164.85589043343424
143.54881438745528
128.0898754618204
117.39547363214432
110.34324855450164
105.90958267726366
103.25053501616279
101.72785349192259
100.8943470614796
100.4577244200563
100.238843609379
100.13452230497887
100.08931636753434
100.07681833180473
100.08931636389144
100.13452229538967
100.23884375743589
100.45772473599297
100.89434631646245
101.72785396789905
103.25053697012126
105.90958220968778
110.34325397277165
117.3954676932973
128.08988051836528
143.5488013963364
164.85589387191143
192.88219915816723
228.11489423076685
228.15423851608455
192.92295306406328
164.89786638519627
143.59173192990636
128.13351275801736
117.43964061249939
110.38779052571309
105.95437989465205
103.29549922943785
101.77292270980519
100.93947973322489
100.50289393065327
100.2840336198671
100.1797231252587
100.13452229643333
100.12202574976091
100.13452229279089
100.17972311567051
100.28403376790959
100.50289424656229
100.93947898826781
101.77292318574717
103.29550118326837
105.95437942710552
110.38779594368435
117.43963467395878
128.13351781432002
143.59171893937705
164.89786982352453
192.92298791451483
228.1542383421339
228.24516587876025
193.0172154061031
164.99486170146395
143.69088701194303
128.23431145849247
117.54164255222226
110.4906391691352
106.05780097043174
103.39929203799461
101.87694738262675
101.04364332658531
100.60713745924625
100.38832122918954
100.28403377713781
100.23884375812153
100.2263503484146
100.23884375448003
100.28403376755189
100.38832137720091
100.60713777509517
101.04364258175917
101.87694785849308
103.39929399154128
106.05780050295081
110.49064458643386
117.5416366143754
128.23431651424355
143.69087402276278
164.99486513944981
193.01725025320596
228.24516570482106
228.43625873979488
193.21530812154106
165.19867225515432
143.89919738215602
128.44602876590335
117.75583885913848
110.70656775254608
106.2748915215212
103.617130652693
102.0952482412727
101.26221838858945
100.82586866248346
100.60713762826414
100.50289425690704
100.45772473779941
100.44523724596445
100.45772473415957
100.50289424732559
100.60713777621555
100.82586897821557
101.26221764402003
102.09524871698866
103.61713260567113
106.27489105417195
110.70657316847415
117.75583292271502
128.44603382051434
143.8991843957795
165.19867569242598
193.21534296162673
228.4362585658811
228.8180784228878
193.61109583497733
165.605832059027
144.3152684994023
128.86881135063226
118.18347441952193
111.13757008611057
106.70813395126653
104.05180240608922
102.53079470828492
101.69827842767226
101.26221802042623
101.0436431271962
100.9394796908856
100.89434701060411
100.88187009521118
100.89434700696737
100.93947968131165
101.04364327503883
101.26221833594268
101.69827768358081
102.53079518371774
104.05180435798565
106.7081334841692
111.13757549938448
118.18346848587383
128.86881640300342
144.31525551856345
165.60583549488095
193.61113066108362
228.81807824902685
229.5481206459013
194.36781073355553
166.38419180178337
145.11051777087627
129.6767145886722
119.00047108684717
111.96083054473634
107.53552881815284
104.8818121657616
103.36238957938451
102.53079461369342
102.09524777890967
101.87694708881806
101.77292257282933
101.72785334641654
101.71539455020684
101.72785334278512
101.77292256326892
101.8769472364702
102.09524809404498
102.53079387045425
103.36239005430696
104.8818141156876
107.53552835151642
111.96083595309028
119.00046515837815
129.67671963683262
145.11050480050548
166.38419523494508
194.36784553301166
229.5481204721455
230.88377783712016
195.75220680173456
167.8080149131923
146.56498015636808
131.15401683509856
120.4940885129492
113.4656091097361
109.04761757606019
106.39848535903747
104.88181650480688
104.05180665511794
103.61713453712531
103.39929609192646
103.29550344049804
103.25053921899966
103.23811025092463
103.25053921537705
103.29550343095967
103.39929623925866
103.61713485161438
104.05180591333713
104.8818169788467
106.39848730552275
109.04761711023193
113.46561450935414
120.49408259373574
131.15402187567926
146.56496720493848
167.80801834146064
195.7522415525696
230.88377766356453
233.2194310530144
198.17298915571533
170.2974558459973
149.10756885376617
133.73603398570924
123.10411031307393
116.09466361311895
111.68904677994666
109.04761297990149
107.53552854003598
106.7081335787454
106.27489078306839
106.05780039959095
105.95437947971845
105.9095822538356
105.89720049030258
105.90958225022676
105.95437947021539
106.05780054640798
106.27489109650537
106.70813283935746
107.53552901261307
109.04761492063119
111.68904631547505
116.09466899788974
123.10410440968755
133.7360390132387
149.10755593511254
170.2974592657624
198.1730238217552
233.21943087982038
237.11879271873363
202.21431757594362
174.4529629726083
153.3511379694456
138.0446392625005
127.45866236340994
120.48025149058456
116.09467580377684
113.46561675980318
111.96084251213554
111.13758197074914
110.70657927921356
110.49065086568667
110.38780237885686
110.34326039988098
110.33095045793011
110.34326039629302
110.38780236940755
110.49065101170628
110.70657959100741
111.1375812351262
111.96084298239005
113.4656186913143
116.09467534148513
120.48025685121969
127.45865648589894
138.0446442685546
153.351125104975
174.45296637825956
202.21435210077303
237.1187925461626
243.32813021777955
208.64949547120503
181.0693090958016
160.10674435515816
144.9026677526939
134.388695807135
127.45864957248351
123.10410956977746
120.49408322690402
119.00047006565616
118.18347330445513
117.75583738260606
117.5416412410017
117.4396394549985
117.39547246623418
117.38326760085425
117.39547246267692
117.43963944562864
117.5416413858366
117.75583769193851
118.18347257451113
119.00047053237829
120.49408514428252
123.10410911083753
127.4586548956134
134.388689970042
144.9026727250024
160.106731576191
181.0693124790981
208.64952977168758
243.32813004622898
252.75370806461882
218.41758317625627
191.1115228072402
170.35903846374165
155.30889596581278
144.90266708983893
138.04462593821452
133.73603258011116
131.1540109342771
129.67671290558926
128.8688095741892
128.44602663186583
128.2343094877785
128.1335109391651
128.08987363463294
128.07781664206578
128.08987363111885
128.1335109299073
128.2343096309232
128.44602693766058
128.86880885245716
129.6767133671654
131.15401283092075
133.73603212610126
138.0446312056496
144.90266131304747
155.3089008875044
170.3590258135146
191.11152615676522
218.41761713688842
252.75370789465524
266.3901678754102
232.54918029310156
205.63860213186578
185.18840342734083
170.35903760848012
160.10674283816192
153.35112397546362
149.10756659596927
146.56497347032004
145.11051523656923
144.315265872537
143.89919440307276
143.69088419344496
143.59172926073282
143.54881171005067
143.53695500236225
143.54881170659496
143.59172925162747
143.69088433427282
143.899194703987
144.31526516219307
145.1105156909629
146.5649753378437
149.10756614889823
153.3511291638522
160.10673714730277
170.35904245770155
185.18839096204982
205.63860543273483
232.54921376293854
266.3901677077904
285.1986645087381
252.04015805559018
225.6737727353473
205.6386011055527
191.11152092801677
181.06930655800087
174.45294820910902
170.29745257171254
167.80800730108072
166.38418825287735
165.60582841875143
165.19866826983812
164.99485787311465
164.89786270284156
164.85588674299007
164.84429133293264
164.85588673961064
164.89786269393574
164.99485801088946
165.19866856428587
165.60582772356406
166.38418869766
167.80800912943496
170.29745213399175
174.45295329022167
181.06930098416248
191.11152567815788
205.63858889381362
225.67377596934213
252.04019084950886
285.1986643444061
309.9525354292466
277.6917629517624
252.04022369980888
232.54924629187676
218.41764932782573
208.6495616625453
202.21437232614193
198.17305536276848
195.75226896068017
194.36787694082082
193.6111620068032
193.21537398599716
193.01728143721817
192.92301924378182
192.88223048103373
192.87096378963415
192.8822304777502
192.9230192351277
193.01728157112058
193.21537427220656
193.6111613309945
194.36787737326094
195.75227073851994
198.17305493712385
202.21437726790703
208.64955624113406
218.41765394849293
232.54923441222127
252.04022684604024
277.6917948571929
309.9525352693015
341.08465845165773
309.9524767218334
285.1986675138573
266.39016997910255
252.75370941287042
243.328130979287
237.11878202823524
233.21943115744537
230.88377387999873
229.54812050528963
228.81807819911117
228.4362581938208
228.24516548067768
228.15423825520188
228.11489413640032
228.10402675170275
228.11489413323295
228.1542382468544
228.24516560984608
228.43625846992424
228.81807754713955
229.54812092249645
230.88377559528837
233.21943074676992
237.11878679649513
243.3281257480697
252.7537138715857
266.39015851555195
285.1986705499509
309.9525075108846
341.08465829728607
