# vtk DataFile Version 2.0
Unstructured Grid Example
ASCII
DATASET UNSTRUCTURED_GRID

POINTS 961 float
0.100000001 0.00499999989 0
0.0966666639 0.00499999989 0
0.0933333337 0.00499999989 0
0.0900000036 0.00499999989 0
0.086666666 0.00499999989 0
0.0833333358 0.00499999989 0
0.0799999982 0.00499999989 0
0.0766666681 0.00499999989 0
0.0733333305 0.00499999989 0
0.0700000003 0.00499999989 0
0.0666666701 0.00499999989 0
0.0633333325 0.00499999989 0
0.0599999987 0.00499999989 0
0.0566666685 0.00499999989 0
0.0533333346 0.00499999989 0
0.0500000007 0.00499999989 0
0.0466666669 0.00499999989 0
0.043333333 0.00499999989 0
0.0399999991 0.00499999989 0
0.0366666652 0.00499999989 0
0.0333333351 0.00499999989 0
0.0299999993 0.00499999989 0
0.0266666673 0.00499999989 0
0.0233333334 0.00499999989 0
0.0199999996 0.00499999989 0
0.0166666675 0.00499999989 0
0.0133333337 0.00499999989 0
0.00999999978 0.00499999989 0
0.00666666683 0.00499999989 0
0.00333333341 0.00499999989 0
0.0 0.00499999989 0
0.100000001 0.00166666671 0
0.0966666639 0.00166666671 0
0.0933333337 0.00166666671 0
0.0900000036 0.00166666671 0
0.086666666 0.00166666671 0
0.0833333358 0.00166666671 0
0.0799999982 0.00166666671 0
0.0766666681 0.00166666671 0
0.0733333305 0.00166666671 0
0.0700000003 0.00166666671 0
0.0666666701 0.00166666671 0
0.0633333325 0.00166666671 0
0.0599999987 0.00166666671 0
0.0566666685 0.00166666671 0
0.0533333346 0.00166666671 0
0.0500000007 0.00166666671 0
0.0466666669 0.00166666671 0
0.043333333 0.00166666671 0
0.0399999991 0.00166666671 0
0.0366666652 0.00166666671 0
0.0333333351 0.00166666671 0
0.0299999993 0.00166666671 0
0.0266666673 0.00166666671 0
0.0233333334 0.00166666671 0
0.0199999996 0.00166666671 0
0.0166666675 0.00166666671 0
0.0133333337 0.00166666671 0
0.00999999978 0.00166666671 0
0.00666666683 0.00166666671 0
0.00333333341 0.00166666671 0
0.0 0.00166666671 0
0.100000001 -0.00166666671 0
0.0966666639 -0.00166666671 0
0.0933333337 -0.00166666671 0
0.0900000036 -0.00166666671 0
0.086666666 -0.00166666671 0
0.0833333358 -0.00166666671 0
0.0799999982 -0.00166666671 0
0.0766666681 -0.00166666671 0
0.0733333305 -0.00166666671 0
0.0700000003 -0.00166666671 0
0.0666666701 -0.00166666671 0
0.0633333325 -0.00166666671 0
0.0599999987 -0.00166666671 0
0.0566666685 -0.00166666671 0
0.0533333346 -0.00166666671 0
0.0500000007 -0.00166666671 0
0.0466666669 -0.00166666671 0
0.043333333 -0.00166666671 0
0.0399999991 -0.00166666671 0
0.0366666652 -0.00166666671 0
0.0333333351 -0.00166666671 0
0.0299999993 -0.00166666671 0
0.0266666673 -0.00166666671 0
0.0233333334 -0.00166666671 0
0.0199999996 -0.00166666671 0
0.0166666675 -0.00166666671 0
0.0133333337 -0.00166666671 0
0.00999999978 -0.00166666671 0
0.00666666683 -0.00166666671 0
0.00333333341 -0.00166666671 0
0.0 -0.00166666671 0
0.100000001 -0.00499999989 0
0.0966666639 -0.00499999989 0
0.0933333337 -0.00499999989 0
0.0900000036 -0.00499999989 0
0.086666666 -0.00499999989 0
0.0833333358 -0.00499999989 0
0.0799999982 -0.00499999989 0
0.0766666681 -0.00499999989 0
0.0733333305 -0.00499999989 0
0.0700000003 -0.00499999989 0
0.0666666701 -0.00499999989 0
0.0633333325 -0.00499999989 0
0.0599999987 -0.00499999989 0
0.0566666685 -0.00499999989 0
0.0533333346 -0.00499999989 0
0.0500000007 -0.00499999989 0
0.0466666669 -0.00499999989 0
0.043333333 -0.00499999989 0
0.0399999991 -0.00499999989 0
0.0366666652 -0.00499999989 0
0.0333333351 -0.00499999989 0
0.0299999993 -0.00499999989 0
0.0266666673 -0.00499999989 0
0.0233333334 -0.00499999989 0
0.0199999996 -0.00499999989 0
0.0166666675 -0.00499999989 0
0.0133333337 -0.00499999989 0
0.00999999978 -0.00499999989 0
0.00666666683 -0.00499999989 0
0.00333333341 -0.00499999989 0
0.0 -0.00499999989 0
0.100000001 -0.00833333377 0
0.0966666639 -0.00833333377 0
0.0933333337 -0.00833333377 0
0.0900000036 -0.00833333377 0
0.086666666 -0.00833333377 0
0.0833333358 -0.00833333377 0
0.0799999982 -0.00833333377 0
0.0766666681 -0.00833333377 0
0.0733333305 -0.00833333377 0
0.0700000003 -0.00833333377 0
0.0666666701 -0.00833333377 0
0.0633333325 -0.00833333377 0
0.0599999987 -0.00833333377 0
0.0566666685 -0.00833333377 0
0.0533333346 -0.00833333377 0
0.0500000007 -0.00833333377 0
0.0466666669 -0.00833333377 0
0.043333333 -0.00833333377 0
0.0399999991 -0.00833333377 0
0.0366666652 -0.00833333377 0
0.0333333351 -0.00833333377 0
0.0299999993 -0.00833333377 0
0.0266666673 -0.00833333377 0
0.0233333334 -0.00833333377 0
0.0199999996 -0.00833333377 0
0.0166666675 -0.00833333377 0
0.0133333337 -0.00833333377 0
0.00999999978 -0.00833333377 0
0.00666666683 -0.00833333377 0
0.00333333341 -0.00833333377 0
0.0 -0.00833333377 0
0.100000001 -0.0116666667 0
0.0966666639 -0.0116666667 0
0.0933333337 -0.0116666667 0
0.0900000036 -0.0116666667 0
0.086666666 -0.0116666667 0
0.0833333358 -0.0116666667 0
0.0799999982 -0.0116666667 0
0.0766666681 -0.0116666667 0
0.0733333305 -0.0116666667 0
0.0700000003 -0.0116666667 0
0.0666666701 -0.0116666667 0
0.0633333325 -0.0116666667 0
0.0599999987 -0.0116666667 0
0.0566666685 -0.0116666667 0
0.0533333346 -0.0116666667 0
0.0500000007 -0.0116666667 0
0.0466666669 -0.0116666667 0
0.043333333 -0.0116666667 0
0.0399999991 -0.0116666667 0
0.0366666652 -0.0116666667 0
0.0333333351 -0.0116666667 0
0.0299999993 -0.0116666667 0
0.0266666673 -0.0116666667 0
0.0233333334 -0.0116666667 0
0.0199999996 -0.0116666667 0
0.0166666675 -0.0116666667 0
0.0133333337 -0.0116666667 0
0.00999999978 -0.0116666667 0
0.00666666683 -0.0116666667 0
0.00333333341 -0.0116666667 0
0.0 -0.0116666667 0
0.100000001 -0.0149999997 0
0.0966666639 -0.0149999997 0
0.0933333337 -0.0149999997 0
0.0900000036 -0.0149999997 0
0.086666666 -0.0149999997 0
0.0833333358 -0.0149999997 0
0.0799999982 -0.0149999997 0
0.0766666681 -0.0149999997 0
0.0733333305 -0.0149999997 0
0.0700000003 -0.0149999997 0
0.0666666701 -0.0149999997 0
0.0633333325 -0.0149999997 0
0.0599999987 -0.0149999997 0
0.0566666685 -0.0149999997 0
0.0533333346 -0.0149999997 0
0.0500000007 -0.0149999997 0
0.0466666669 -0.0149999997 0
0.043333333 -0.0149999997 0
0.0399999991 -0.0149999997 0
0.0366666652 -0.0149999997 0
0.0333333351 -0.0149999997 0
0.0299999993 -0.0149999997 0
0.0266666673 -0.0149999997 0
0.0233333334 -0.0149999997 0
0.0199999996 -0.0149999997 0
0.0166666675 -0.0149999997 0
0.0133333337 -0.0149999997 0
0.00999999978 -0.0149999997 0
0.00666666683 -0.0149999997 0
0.00333333341 -0.0149999997 0
0.0 -0.0149999997 0
0.100000001 -0.0183333326 0
0.0966666639 -0.0183333326 0
0.0933333337 -0.0183333326 0
0.0900000036 -0.0183333326 0
0.086666666 -0.0183333326 0
0.0833333358 -0.0183333326 0
0.0799999982 -0.0183333326 0
0.0766666681 -0.0183333326 0
0.0733333305 -0.0183333326 0
0.0700000003 -0.0183333326 0
0.0666666701 -0.0183333326 0
0.0633333325 -0.0183333326 0
0.0599999987 -0.0183333326 0
0.0566666685 -0.0183333326 0
0.0533333346 -0.0183333326 0
0.0500000007 -0.0183333326 0
0.0466666669 -0.0183333326 0
0.043333333 -0.0183333326 0
0.0399999991 -0.0183333326 0
0.0366666652 -0.0183333326 0
0.0333333351 -0.0183333326 0
0.0299999993 -0.0183333326 0
0.0266666673 -0.0183333326 0
0.0233333334 -0.0183333326 0
0.0199999996 -0.0183333326 0
0.0166666675 -0.0183333326 0
0.0133333337 -0.0183333326 0
0.00999999978 -0.0183333326 0
0.00666666683 -0.0183333326 0
0.00333333341 -0.0183333326 0
0.0 -0.0183333326 0
0.100000001 -0.0216666665 0
0.0966666639 -0.0216666665 0
0.0933333337 -0.0216666665 0
0.0900000036 -0.0216666665 0
0.086666666 -0.0216666665 0
0.0833333358 -0.0216666665 0
0.0799999982 -0.0216666665 0
0.0766666681 -0.0216666665 0
0.0733333305 -0.0216666665 0
0.0700000003 -0.0216666665 0
0.0666666701 -0.0216666665 0
0.0633333325 -0.0216666665 0
0.0599999987 -0.0216666665 0
0.0566666685 -0.0216666665 0
0.0533333346 -0.0216666665 0
0.0500000007 -0.0216666665 0
0.0466666669 -0.0216666665 0
0.043333333 -0.0216666665 0
0.0399999991 -0.0216666665 0
0.0366666652 -0.0216666665 0
0.0333333351 -0.0216666665 0
0.0299999993 -0.0216666665 0
0.0266666673 -0.0216666665 0
0.0233333334 -0.0216666665 0
0.0199999996 -0.0216666665 0
0.0166666675 -0.0216666665 0
0.0133333337 -0.0216666665 0
0.00999999978 -0.0216666665 0
0.00666666683 -0.0216666665 0
0.00333333341 -0.0216666665 0
0.0 -0.0216666665 0
0.100000001 -0.0250000004 0
0.0966666639 -0.0250000004 0
0.0933333337 -0.0250000004 0
0.0900000036 -0.0250000004 0
0.086666666 -0.0250000004 0
0.0833333358 -0.0250000004 0
0.0799999982 -0.0250000004 0
0.0766666681 -0.0250000004 0
0.0733333305 -0.0250000004 0
0.0700000003 -0.0250000004 0
0.0666666701 -0.0250000004 0
0.0633333325 -0.0250000004 0
0.0599999987 -0.0250000004 0
0.0566666685 -0.0250000004 0
0.0533333346 -0.0250000004 0
0.0500000007 -0.0250000004 0
0.0466666669 -0.0250000004 0
0.043333333 -0.0250000004 0
0.0399999991 -0.0250000004 0
0.0366666652 -0.0250000004 0
0.0333333351 -0.0250000004 0
0.0299999993 -0.0250000004 0
0.0266666673 -0.0250000004 0
0.0233333334 -0.0250000004 0
0.0199999996 -0.0250000004 0
0.0166666675 -0.0250000004 0
0.0133333337 -0.0250000004 0
0.00999999978 -0.0250000004 0
0.00666666683 -0.0250000004 0
0.00333333341 -0.0250000004 0
0.0 -0.0250000004 0
0.100000001 -0.0283333343 0
0.0966666639 -0.0283333343 0
0.0933333337 -0.0283333343 0
0.0900000036 -0.0283333343 0
0.086666666 -0.0283333343 0
0.0833333358 -0.0283333343 0
0.0799999982 -0.0283333343 0
0.0766666681 -0.0283333343 0
0.0733333305 -0.0283333343 0
0.0700000003 -0.0283333343 0
0.0666666701 -0.0283333343 0
0.0633333325 -0.0283333343 0
0.0599999987 -0.0283333343 0
0.0566666685 -0.0283333343 0
0.0533333346 -0.0283333343 0
0.0500000007 -0.0283333343 0
0.0466666669 -0.0283333343 0
0.043333333 -0.0283333343 0
0.0399999991 -0.0283333343 0
0.0366666652 -0.0283333343 0
0.0333333351 -0.0283333343 0
0.0299999993 -0.0283333343 0
0.0266666673 -0.0283333343 0
0.0233333334 -0.0283333343 0
0.0199999996 -0.0283333343 0
0.0166666675 -0.0283333343 0
0.0133333337 -0.0283333343 0
0.00999999978 -0.0283333343 0
0.00666666683 -0.0283333343 0
0.00333333341 -0.0283333343 0
0.0 -0.0283333343 0
[...]
POINT_DATA 961
SCALARS Temp float 1
LOOKUP_TABLE default
305.9971215275229
274.317540116534
250.58535060763762
233.9329434923743
223.00509662588237
216.299108714212
212.4466871567692
210.37076105470217
209.3186563541234
208.81559572008894
208.58789961972155
208.4900085434865
208.44991379026922
208.43427124513929
208.42861024419545
208.4272175788897
208.42861024379016
208.4342712438925
208.44991381520887
208.4900086090567
208.5878994365611
208.81559586333424
209.31865707082997
210.37076087439976
212.44668992101825
216.29910528496467
223.0051000161876
233.93293386377195
250.5853534106558
274.31757053429334
305.99712128327633
274.317572698162
241.51501863254038
216.94079768161544
199.69682135593084
188.3801699474889
181.43515710631814
177.44514328922455
175.29491078089677
174.20505927394007
173.6839068708129
173.44800214189445
173.34657343760418
173.3050262511039
173.28881574507517
173.28294877602903
173.28150537162125
173.2829487756091
173.28881574378298
173.30502627694798
173.34657350554608
173.44800195212255
173.6839070192159
174.20506001638518
175.29491059412257
177.44514615229616
181.43515355468898
188.38017345851378
199.6968113849887
216.94080058413886
241.5150501290309
274.3175724452984
250.58535506549427
216.94076769330334
191.73361083723483
174.04349320180725
162.4324152374684
155.3055286530716
151.21025793101336
149.00285098614498
147.88377780270886
147.3485315035967
147.10619139459897
147.00197170326186
146.95927150091063
146.9426074254744
146.9365750978947
146.93509081659528
146.9365750974626
146.94260742414585
146.95927152747436
147.00197177307936
147.10619119962712
147.3485316560299
147.8837785651307
149.0028507943542
151.21026086987635
155.3055250080165
162.43241884010183
174.0434829721051
191.7336138146598
216.94079999963276
250.5853548062522
233.93293415109505
199.69677646785937
174.04347845814496
156.0374932711871
144.2168178444749
136.95962751608732
132.78840389867284
130.53942012531633
129.39892398697643
128.85325870171945
128.60612103778212
128.49980321812282
128.4562291090982
128.43921855393094
128.43305902863887
128.43154316082286
128.43305902819773
128.43921855257443
128.456229136209
128.4998032893546
128.60612083891684
128.8532588571445
129.39892476409366
130.53941992984159
132.7884068924129
136.95962380380348
144.21682151250553
156.03748285773463
174.04348148846722
199.69680934406463
233.93293388745153
223.00510041267916
188.3801382526414
162.43241438672305
144.2168321631052
132.25613102779351
124.91119618775436
120.68837122831394
118.41086834596803
117.2555283249929
116.70256845431079
116.45203653496843
116.3442187563874
116.30001348076179
116.28275023066291
116.27649713255805
116.27495789712584
116.27649713211018
116.28275022928594
116.30001350826946
116.34421882863403
116.45203633333367
116.70256861184112
117.25552911233584
118.4108681479355
120.68837425949435
124.91119242995343
132.25613473966595
144.21682162727308
162.43241745203764
188.38017150414836
223.00510014620895
216.2991069596736
181.43511942511412
155.30552187904175
136.959635912557
124.9111900883344
117.51075859058884
113.25495466392913
110.95901753051423
109.79396747453427
109.23617679894569
108.9833688716933
108.87453273738473
108.82989369589693
108.81245474508958
108.8061359108252
108.80458014908592
108.80613591037243
108.81245474369828
108.82989372367834
108.87453281032381
108.98336866818936
109.23617695787858
109.7939682686003
110.95901733080457
113.25495771915821
117.51075480381573
124.91119382779198
136.95962530031576
155.30552496603335
181.43515290789142
216.29910669151508
212.44669021604824
177.44511045098375
151.21025625459302
132.78841755134889
120.68837038822734
113.25495999184028
108.979326633333
106.67216262464403
105.5011181633844
104.94030303163726
104.68604965287574
104.57655747620622
104.53163503836736
104.5140797367923
104.50771684957392
104.50614992699386
104.50771684911791
104.51407973539136
104.53163506632889
104.57655754959353
104.68604944817565
104.94030319145476
105.50111896162485
106.67216242389617
108.97932970310389
113.25495618772719
120.68837414398186
132.7884068943562
151.21025935417077
177.44514406724264
212.4466899469507
210.3707615582277
175.294875218208
149.0028465817723
130.539431034183
118.410864693536
110.95902003906039
106.67215977771802
104.35854968913938
103.18401167456943
102.62140626261635
102.3662835719555
102.2563904949188
102.21129212215826
102.19366348447232
102.187272455743
102.18569834149646
102.18727245528487
102.19366348306528
102.21129215023234
102.25639056858176
102.36628336653001
102.62140642296123
103.18401247525851
104.35854948778461
106.67216285577335
110.95901622517908
118.4108684583425
130.53942035256705
149.00284968821072
175.29490890676107
210.37076128864248
209.31865754138062
174.20502438017738
147.8837741202801
129.39893564993562
117.25552541891183
109.79397074397056
105.50111607387538
103.18401243850938
102.00755050661989
101.44394251448675
101.1883245393198
101.07819904082525
101.03299689061093
101.01532426670369
101.00891610816592
101.00733757456003
101.00891610770663
101.01532426529292
101.03299691875178
101.07819911464921
101.18832433347714
101.44394267512958
102.00755130866696
103.18401223681953
105.50111915638351
109.79396692490172
117.25552918845473
129.39892495556413
147.88377723023845
174.2050581055665
209.31865727155852
208.8155960366452
173.6838710561492
147.34852689227023
128.85326942671492
116.70256458920161
109.23617910516732
104.9402999700231
102.6214060535647
101.44394153913339
100.87980177251472
100.62391624929508
100.51366284314732
100.46840251101337
100.45070477905382
100.44428668578585
100.44270556279464
100.44428668532574
100.45070477764112
100.46840253919189
100.5136629170604
100.62391604322487
100.87980193331713
101.44394234189339
102.62140585169965
104.94030305479342
109.23617528349581
116.70256836108463
128.8532587261057
147.34853000393335
173.6839047992489
208.81559576671486
208.58789974976227
173.44796612537206
147.10618658352544
128.60613156313462
116.45203246339743
108.98337097143829
104.68604638174926
102.36628315366683
101.18832335395373
100.6239160394859
100.36789331998531
100.25757303346673
100.2122816777434
100.19457030044815
100.18814671632768
100.18656414670261
100.18814671586716
100.19457029903427
100.2122817059423
100.25757310742667
100.36789311379725
100.62391620036932
101.1883241570688
102.36628295171498
104.6860494676084
108.9833671485299
116.4520362363755
128.60612085963731
147.10618969597004
173.44799987653283
208.58789947978534
208.4900088628159
173.3465376134837
147.00196709316762
128.49981395027018
116.3442148927183
108.87453504781628
104.5765544161827
102.25639028895154
101.0781980680486
100.51366284637106
100.25757324668214
100.14721969643439
100.10191259460301
100.08419415310378
100.07776767615367
100.07618433582384
100.07776767569307
100.08419415168929
100.10191262281242
100.14721977041795
100.25757304043593
100.51366300729374
101.0781988713316
102.25639008695892
104.57655750253957
108.87453122434974
116.34421866618278
128.49980324550273
147.00197020595252
173.34657136812933
208.4900085928203
208.44991408125185
173.30499039608026
146.95926686042128
128.45623981098788
116.30000958566049
108.829895974961
104.53163194642876
102.21129188436134
101.03299588586164
100.46840248232007
100.21228185905015
100.10191256265604
100.05659785191197
100.03887592728744
100.03244799834434
100.03086426677925
100.03244799788351
100.0388759258726
100.05659788012626
100.10191263665094
100.21228165277671
100.46840264326073
101.0329966892202
102.21129168235059
104.53163503300208
108.8298921512548
116.30001335933068
128.45622910568878
146.95926997334726
173.30502415216134
208.4499138112489
208.43427151432115
173.28877986685896
146.942602761677
128.43922923232816
116.28274631142352
108.81245699991877
104.51407662031137
102.19366322211569
101.01532323730201
100.45070472571372
100.19457045710186
100.08419409648127
100.03887590260936
100.02115235171642
100.01472373294506
100.0131398134577
100.01472373248419
100.02115235030138
100.03887593082594
100.08419417048115
100.1945702508162
100.45070488666198
101.01532404069276
102.19366302009716
104.51407970697419
108.81245317611453
116.28275008517654
128.43921852681717
146.9426058746588
173.28881362350288
208.43427124431557
208.4286105162255
173.28291290054582
146.93657043710013
128.43306971021087
116.27649321643003
108.8061381688519
104.50771373625578
102.18727219659401
101.008915081967
100.44428663566843
100.18814687621143
100.07776762275739
100.03244797689388
100.01472373617392
100.00829482030386
100.00671081910605
100.00829481984293
100.01472373475868
100.0324480051113
100.07776769675924
100.18814666992064
100.44428679661974
101.0089158853704
102.18727199457248
104.50771682295266
108.8061343450109
116.27649699021399
128.43305900462184
146.93657355010222
173.2829466573945
208.42861024621882
208.4272178528773
173.2814694981132
146.93508615787948
128.43155384454505
116.2749539831531
108.80458240930493
104.5061468158692
102.185698084559
101.0073365505753
100.44270551489917
100.18656430881153
100.0761842846522
100.03086424755436
100.01313981891246
100.00671082133222
100.0051267975284
100.00671082087123
100.01313981749725
100.03086427577196
100.07618435865461
100.18656410251948
100.44270567585131
101.00733735398198
102.1856978825366
104.50614990257469
108.8045785854545
116.27495775694462
128.43154313893635
146.93508927088678
173.28150325501232
208.42721758287044
208.42861051727743
173.28291290163614
146.93657043822125
128.43306971135573
116.27649321759226
108.80613817002641
104.50771373743858
102.1872721977821
101.00891508315833
100.4442866368615
100.18814687740547
100.07776762395208
100.03244797808871
100.0147237373689
100.00829482149896
100.00671082030125
100.0082948210381
100.01472373595377
100.03244800630623
100.0777676979539
100.18814667111488
100.44428679781282
101.00891588656165
102.18727199576038
104.50771682413536
108.80613434618543
116.27649699137609
128.43305900576664
146.93657355122338
173.28294665848497
208.428610247271
208.43427151721417
173.28877986985705
146.94260276475916
128.43922923547464
116.28274631461709
108.81245700314527
104.51407662355967
102.1936632253779
101.01532324057249
100.45070472898902
100.19457046037975
100.08419409976062
100.03887590588934
100.02115235499669
100.01472373622549
100.01313981673806
100.01472373576446
100.02115235358156
100.03887593410585
100.0841941737604
100.19457025409405
100.45070488993721
101.01532404396313
102.19366302335919
104.51407971022245
108.81245317934103
116.2827500883701
128.43921852996368
146.94260587774096
173.288813626501
208.43427124720841
208.44991408874068
173.30499040384052
146.95926686839755
128.45623981912806
116.30000959391958
108.82989598330204
104.5316319548237
102.21129189278984
101.03299589431008
100.46840249077988
100.2122818675159
100.1019125711249
100.05659786038224
100.03887593575844
100.03244800681557
100.03086427525051
100.0324480063547
100.03887593434351
100.05659788859653
100.10191264511967
100.21228166124241
100.46840265172024
101.03299669766841
102.21129169077895
104.5316350413969
108.82989215959577
116.30001336758981
128.456229113829
146.95926998132336
173.30502415992152
208.44991381873768
208.49000888325136
173.3465376346582
147.0019671149265
128.49981397246935
116.34421491523331
108.87453507054667
104.57655443905254
102.25639031190687
101.07819809105395
100.51366286940404
100.25757326972966
100.14721971948917
100.10191261766136
100.08419417616358
100.07776769921415
100.07618435888433
100.07776769875349
100.08419417474899
100.10191264587047
100.14721979347267
100.25757306348339
100.51366303032644
101.07819889433678
102.25639010991416
104.57655752540917
108.87453124708009
116.34421868869781
128.499803267702
147.00197022771127
173.3465713893039
208.49000861325567
208.5878998840901
173.44796626454732
147.10618672651057
128.60613170896977
116.45203261125756
108.98337112066314
104.68604653184596
102.36628330429133
101.18832350488124
100.62391619057827
100.36789347116292
100.25757318468621
100.21228182898258
100.19457045169604
100.18814686757891
100.18656429795472
100.18814686711849
100.19457045028194
100.21228185718135
100.25757325864619
100.36789326497474
100.62391635146155
101.1883243079962
102.36628310233942
104.686049617705
108.9833672977546
116.45203638423543
128.60612100547237
147.10618983895512
173.44800001570795
208.5878996141132
208.8155959546036
173.68387097115183
147.3485268049594
128.853269337683
116.70256449895527
109.2361790141094
104.9402998784514
102.62140596168535
101.44394144707948
100.87980168036698
100.62391615709949
100.51366275092846
100.46840241878373
100.4507046868194
100.44428659354945
100.4427054705578
100.4442865930894
100.45070468540666
100.46840244696222
100.5136628248414
100.62391595102919
100.8798018411694
101.44394224983958
102.62140575982029
104.94030296322158
109.23617519243763
116.70256827083827
128.85325863707368
147.34852991662234
173.68390471425147
208.8155956846734
209.31865816296178
174.20502502408286
147.88377478151585
129.39893632392364
117.25552610177677
109.79397143267406
105.50111676620597
103.1840131329687
102.00755120226049
101.44394321074778
101.18832523588986
101.07819973754165
101.03299758739311
101.01532496351383
101.0089168049873
101.00733827138413
101.00891680452793
101.01532496210326
101.032997615534
101.07819981136551
101.18832503004728
101.44394337139065
102.00755200430748
103.18401293127883
105.50111984871405
109.79396761360513
117.25552987131948
129.3989256295521
147.8837778914743
174.20505874947187
209.31865789313977
210.37076118616798
175.29487483280738
149.00284618605946
130.53943063092544
118.4108642850638
110.95901962718723
106.67215936375244
104.35854927395896
103.18401125872276
102.62140584642391
102.36628315559297
102.25639007847697
102.21129170568108
102.19366306798027
102.18727203924517
102.18569792499702
102.18727203878707
102.1936630665733
102.21129173375516
102.25639015213987
102.36628295016763
102.62140600676877
103.18401205941176
104.35854907260412
106.67216244180779
110.95901581330585
118.41086804987032
130.53941994930952
149.0028492924981
175.29490852136036
210.37076091658255
212.44669346860246
177.44511381982318
151.21025971262742
132.78842107397588
120.68837395493321
113.25496358686541
108.97933024548749
106.67216624656025
105.50112179054916
104.94030666146949
104.68605328399207
104.57656110790991
104.53163867032659
104.51408336885721
104.50772048167907
104.50615355910926
104.50772048122312
104.51408336745637
104.53163869828816
104.57656118129721
104.68605307929205
104.94030682128671
105.50112258878937
106.67216604581213
108.97933331525826
113.25495978275224
120.68837771068776
132.78841041698337
151.21026281220486
177.4451474360818
212.44669319950458
216.2991084050308
181.43512092201115
155.30552341519987
136.95963747688717
124.91119167167209
117.51076018597648
113.25495626649678
110.95901913710735
109.79396908325472
109.23617840872805
108.98337048197801
108.87453434789506
108.82989530650352
108.8124563557355
108.80613752148581
108.8045817597503
108.80613752103315
108.81245635434432
108.82989533428508
108.87453442083385
108.9833702784739
109.23617856766101
109.79396987732045
110.95901893739732
113.25495932172548
117.5107563992034
124.9111954111297
136.95962686464594
155.30552650219138
181.43515440478816
216.29910813687235
223.0050957573445
188.3801334314989
162.43240943966913
144.2168271260815
132.25612593038514
124.91119105230165
120.68836607035173
118.41086317548348
117.25552314794542
116.70256327401508
116.45203135315053
116.34421357389198
116.30000829797922
116.28274504776462
116.27649194961683
116.2749527141737
116.27649194916889
116.2827450463877
116.30000832548669
116.34421364613854
116.45203115151558
116.70256343154517
117.25552393528801
118.41086297745078
120.68836910153202
124.91118729450064
132.25612964225752
144.2168165902493
162.43241250498363
188.38016668300594
223.0050954908743
233.93294182177317
199.69678441123665
174.043486607588
156.03750156690944
144.21682623757948
136.9596359699647
132.78841238812572
130.53942863433335
129.39893250612317
128.85326722581735
128.60612956417128
128.49981174551928
128.45623763691603
128.4392270819166
128.43306755668658
128.43155168888612
128.43306755624542
128.43922708056016
128.45623766402676
128.49981181675076
128.60612936530592
128.85326738124232
129.39893328324013
130.5394284388584
132.7884153818654
136.95963225768048
144.21682990560979
156.03749115345667
174.04348963791006
199.6968172874415
233.93294155812941
250.5853478838524
216.94076025668338
191.73360320861568
174.0434854375338
162.432407383412
155.30552074336805
151.21024998898503
149.0028430264885
147.88376983400534
147.34852353051122
147.10618341950442
147.00196372729235
146.95926352457835
146.94259944899883
146.93656712136658
146.9350828400543
146.93656712093448
146.94259944767012
146.95926355114202
147.0019637971097
147.10618322453246
147.34852368294446
147.88377059642715
149.00284283469747
151.21025292784782
155.3055170983126
162.432410986045
174.04347520783108
191.73360618604028
216.94079256301268
250.5853476246101
274.31759815257556
241.515044989657
216.9408247163991
199.69684886756357
188.38019777314327
181.43518512546802
177.44517142004574
175.29493897219467
174.20508749604983
173.6839351077357
173.44803038555884
173.34660168418284
173.3050544988828
173.28884399332495
173.28297702444968
173.28153362008425
173.28297702402972
173.28884399203264
173.30505452472698
173.34660175212488
173.4480301957871
173.68393525613868
174.205088238495
175.29493878542033
177.44517428311704
181.43518157383863
188.38020128416784
199.69683889662136
216.94082761892193
241.51507648614628
274.317597899712
305.9971213894626
274.31753997360727
250.58535046111845
233.9329433433843
223.00509647531203
216.2991085627017
212.44668700473875
210.3707609024027
209.3186562016941
208.8155955676007
208.587899467208
208.49000839096297
208.4499136377418
208.43427109261037
208.42861009166603
208.42721742636013
208.42861009126082
208.43427109136357
208.44991366268133
208.49000845653313
208.58789928404775
208.8155957108462
209.3186569184008
210.37076072210036
212.44668976898745
216.29910513345428
223.00509986561698
233.93293371478163
250.58535326413616
274.3175703913664
305.9971211452158
