# vtk DataFile Version 2.0
Unstructured Grid Example
ASCII
DATASET UNSTRUCTURED_GRID

POINTS 961 float
0.100000001 0.00499999989 0
0.0966666639 0.00499999989 0
0.0933333337 0.00499999989 0
0.0900000036 0.00499999989 0
0.086666666 0.00499999989 0
0.0833333358 0.00499999989 0
0.0799999982 0.00499999989 0
0.0766666681 0.00499999989 0
0.0733333305 0.00499999989 0
0.0700000003 0.00499999989 0
0.0666666701 0.00499999989 0
0.0633333325 0.00499999989 0
0.0599999987 0.00499999989 0
0.0566666685 0.00499999989 0
0.0533333346 0.00499999989 0
0.0500000007 0.00499999989 0
0.0466666669 0.00499999989 0
0.043333333 0.00499999989 0
0.0399999991 0.00499999989 0
0.0366666652 0.00499999989 0
0.0333333351 0.00499999989 0
0.0299999993 0.00499999989 0
0.0266666673 0.00499999989 0
0.0233333334 0.00499999989 0
0.0199999996 0.00499999989 0
0.0166666675 0.00499999989 0
0.0133333337 0.00499999989 0
0.00999999978 0.00499999989 0
0.00666666683 0.00499999989 0
0.00333333341 0.00499999989 0
0.0 0.00499999989 0
0.100000001 0.00166666671 0
0.0966666639 0.00166666671 0
0.0933333337 0.00166666671 0
0.0900000036 0.00166666671 0
0.086666666 0.00166666671 0
0.0833333358 0.00166666671 0
0.0799999982 0.00166666671 0
0.0766666681 0.00166666671 0
0.0733333305 0.00166666671 0
0.0700000003 0.00166666671 0
0.0666666701 0.00166666671 0
0.0633333325 0.00166666671 0
0.0599999987 0.00166666671 0
0.0566666685 0.00166666671 0
0.0533333346 0.00166666671 0
0.0500000007 0.00166666671 0
0.0466666669 0.00166666671 0
0.043333333 0.00166666671 0
0.0399999991 0.00166666671 0
0.0366666652 0.00166666671 0
0.0333333351 0.00166666671 0
0.0299999993 0.00166666671 0
0.0266666673 0.00166666671 0
0.0233333334 0.00166666671 0
0.0199999996 0.00166666671 0
0.0166666675 0.00166666671 0
0.0133333337 0.00166666671 0
0.00999999978 0.00166666671 0
0.00666666683 0.00166666671 0
0.00333333341 0.00166666671 0
0.0 0.00166666671 0
0.100000001 -0.00166666671 0
0.0966666639 -0.00166666671 0
0.0933333337 -0.00166666671 0
0.0900000036 -0.00166666671 0
0.086666666 -0.00166666671 0
0.0833333358 -0.00166666671 0
0.0799999982 -0.00166666671 0
0.0766666681 -0.00166666671 0
0.0733333305 -0.00166666671 0
0.0700000003 -0.00166666671 0
0.0666666701 -0.00166666671 0
0.0633333325 -0.00166666671 0
0.0599999987 -0.00166666671 0
0.0566666685 -0.00166666671 0
0.0533333346 -0.00166666671 0
0.0500000007 -0.00166666671 0
0.0466666669 -0.00166666671 0
0.043333333 -0.00166666671 0
0.0399999991 -0.00166666671 0
0.0366666652 -0.00166666671 0
0.0333333351 -0.00166666671 0
0.0299999993 -0.00166666671 0
0.0266666673 -0.00166666671 0
0.0233333334 -0.00166666671 0
0.0199999996 -0.00166666671 0
0.0166666675 -0.00166666671 0
0.0133333337 -0.00166666671 0
0.00999999978 -0.00166666671 0
0.00666666683 -0.00166666671 0
0.00333333341 -0.00166666671 0
0.0 -0.00166666671 0
0.100000001 -0.00499999989 0
0.0966666639 -0.00499999989 0
0.0933333337 -0.00499999989 0
0.0900000036 -0.00499999989 0
0.086666666 -0.00499999989 0
0.0833333358 -0.00499999989 0
0.0799999982 -0.00499999989 0
0.0766666681 -0.00499999989 0
0.0733333305 -0.00499999989 0
0.0700000003 -0.00499999989 0
0.0666666701 -0.00499999989 0
0.0633333325 -0.00499999989 0
0.0599999987 -0.00499999989 0
0.0566666685 -0.00499999989 0
0.0533333346 -0.00499999989 0
0.0500000007 -0.00499999989 0
0.0466666669 -0.00499999989 0
0.043333333 -0.00499999989 0
0.0399999991 -0.00499999989 0
0.0366666652 -0.00499999989 0
0.0333333351 -0.00499999989 0
0.0299999993 -0.00499999989 0
0.0266666673 -0.00499999989 0
0.0233333334 -0.00499999989 0
0.0199999996 -0.00499999989 0
0.0166666675 -0.00499999989 0
0.0133333337 -0.00499999989 0
0.00999999978 -0.00499999989 0
0.00666666683 -0.00499999989 0
0.00333333341 -0.00499999989 0
0.0 -0.00499999989 0
0.100000001 -0.00833333377 0
0.0966666639 -0.00833333377 0
0.0933333337 -0.00833333377 0
0.0900000036 -0.00833333377 0
0.086666666 -0.00833333377 0
0.0833333358 -0.00833333377 0
0.0799999982 -0.00833333377 0
0.0766666681 -0.00833333377 0
0.0733333305 -0.00833333377 0
0.0700000003 -0.00833333377 0
0.0666666701 -0.00833333377 0
0.0633333325 -0.00833333377 0
0.0599999987 -0.00833333377 0
0.0566666685 -0.00833333377 0
0.0533333346 -0.00833333377 0
0.0500000007 -0.00833333377 0
0.0466666669 -0.00833333377 0
0.043333333 -0.00833333377 0
0.0399999991 -0.00833333377 0
0.0366666652 -0.00833333377 0
0.0333333351 -0.00833333377 0
0.0299999993 -0.00833333377 0
0.0266666673 -0.00833333377 0
0.0233333334 -0.00833333377 0
0.0199999996 -0.00833333377 0
0.0166666675 -0.00833333377 0
0.0133333337 -0.00833333377 0
0.00999999978 -0.00833333377 0
0.00666666683 -0.00833333377 0
0.00333333341 -0.00833333377 0
0.0 -0.00833333377 0
0.100000001 -0.0116666667 0
0.0966666639 -0.0116666667 0
0.0933333337 -0.0116666667 0
0.0900000036 -0.0116666667 0
0.086666666 -0.0116666667 0
0.0833333358 -0.0116666667 0
0.0799999982 -0.0116666667 0
0.0766666681 -0.0116666667 0
0.0733333305 -0.0116666667 0
0.0700000003 -0.0116666667 0
0.0666666701 -0.0116666667 0
0.0633333325 -0.0116666667 0
0.0599999987 -0.0116666667 0
0.0566666685 -0.0116666667 0
0.0533333346 -0.0116666667 0
0.0500000007 -0.0116666667 0
0.0466666669 -0.0116666667 0
0.043333333 -0.0116666667 0
0.0399999991 -0.0116666667 0
0.0366666652 -0.0116666667 0
0.0333333351 -0.0116666667 0
0.0299999993 -0.0116666667 0
0.0266666673 -0.0116666667 0
0.0233333334 -0.0116666667 0
0.0199999996 -0.0116666667 0
0.0166666675 -0.0116666667 0
0.0133333337 -0.0116666667 0
0.00999999978 -0.0116666667 0
0.00666666683 -0.0116666667 0
0.00333333341 -0.0116666667 0
0.0 -0.0116666667 0
0.100000001 -0.0149999997 0
0.0966666639 -0.0149999997 0
0.0933333337 -0.0149999997 0
0.0900000036 -0.0149999997 0
0.086666666 -0.0149999997 0
0.0833333358 -0.0149999997 0
0.0799999982 -0.0149999997 0
0.0766666681 -0.0149999997 0
0.0733333305 -0.0149999997 0
0.0700000003 -0.0149999997 0
0.0666666701 -0.0149999997 0
0.0633333325 -0.0149999997 0
0.0599999987 -0.0149999997 0
0.0566666685 -0.0149999997 0
0.0533333346 -0.0149999997 0
0.0500000007 -0.0149999997 0
0.0466666669 -0.0149999997 0
0.043333333 -0.0149999997 0
0.0399999991 -0.0149999997 0
0.0366666652 -0.0149999997 0
0.0333333351 -0.0149999997 0
0.0299999993 -0.0149999997 0
0.0266666673 -0.0149999997 0
0.0233333334 -0.0149999997 0
0.0199999996 -0.0149999997 0
0.0166666675 -0.0149999997 0
0.0133333337 -0.0149999997 0
0.00999999978 -0.0149999997 0
0.00666666683 -0.0149999997 0
0.00333333341 -0.0149999997 0
0.0 -0.0149999997 0
0.100000001 -0.0183333326 0
0.0966666639 -0.0183333326 0
0.0933333337 -0.0183333326 0
0.0900000036 -0.0183333326 0
0.086666666 -0.0183333326 0
0.0833333358 -0.0183333326 0
0.0799999982 -0.0183333326 0
0.0766666681 -0.0183333326 0
0.0733333305 -0.0183333326 0
0.0700000003 -0.0183333326 0
0.0666666701 -0.0183333326 0
0.0633333325 -0.0183333326 0
0.0599999987 -0.0183333326 0
0.0566666685 -0.0183333326 0
0.0533333346 -0.0183333326 0
0.0500000007 -0.0183333326 0
0.0466666669 -0.0183333326 0
0.043333333 -0.0183333326 0
0.0399999991 -0.0183333326 0
0.0366666652 -0.0183333326 0
0.0333333351 -0.0183333326 0
0.0299999993 -0.0183333326 0
0.0266666673 -0.0183333326 0
0.0233333334 -0.0183333326 0
0.0199999996 -0.0183333326 0
0.0166666675 -0.0183333326 0
0.0133333337 -0.0183333326 0
0.00999999978 -0.0183333326 0
0.00666666683 -0.0183333326 0
0.00333333341 -0.0183333326 0
0.0 -0.0183333326 0
0.100000001 -0.0216666665 0
0.0966666639 -0.0216666665 0
0.0933333337 -0.0216666665 0
0.0900000036 -0.0216666665 0
0.086666666 -0.0216666665 0
0.0833333358 -0.0216666665 0
0.0799999982 -0.0216666665 0
0.0766666681 -0.0216666665 0
0.0733333305 -0.0216666665 0
0.0700000003 -0.0216666665 0
0.0666666701 -0.0216666665 0
0.0633333325 -0.0216666665 0
0.0599999987 -0.0216666665 0
0.0566666685 -0.0216666665 0
0.0533333346 -0.0216666665 0
0.0500000007 -0.0216666665 0
0.0466666669 -0.0216666665 0
0.043333333 -0.0216666665 0
0.0399999991 -0.0216666665 0
0.0366666652 -0.0216666665 0
0.0333333351 -0.0216666665 0
0.0299999993 -0.0216666665 0
0.0266666673 -0.0216666665 0
0.0233333334 -0.0216666665 0
0.0199999996 -0.0216666665 0
0.0166666675 -0.0216666665 0
0.0133333337 -0.0216666665 0
0.00999999978 -0.0216666665 0
0.00666666683 -0.0216666665 0
0.00333333341 -0.0216666665 0
0.0 -0.0216666665 0
0.100000001 -0.0250000004 0
0.0966666639 -0.0250000004 0
0.0933333337 -0.0250000004 0
0.0900000036 -0.0250000004 0
0.086666666 -0.0250000004 0
0.0833333358 -0.0250000004 0
0.0799999982 -0.0250000004 0
0.0766666681 -0.0250000004 0
0.0733333305 -0.0250000004 0
0.0700000003 -0.0250000004 0
0.0666666701 -0.0250000004 0
0.0633333325 -0.0250000004 0
0.0599999987 -0.0250000004 0
0.0566666685 -0.0250000004 0
0.0533333346 -0.0250000004 0
0.0500000007 -0.0250000004 0
0.0466666669 -0.0250000004 0
0.043333333 -0.0250000004 0
0.0399999991 -0.0250000004 0
0.0366666652 -0.0250000004 0
0.0333333351 -0.0250000004 0
0.0299999993 -0.0250000004 0
0.0266666673 -0.0250000004 0
0.0233333334 -0.0250000004 0
0.0199999996 -0.0250000004 0
0.0166666675 -0.0250000004 0
0.0133333337 -0.0250000004 0
0.00999999978 -0.0250000004 0
0.00666666683 -0.0250000004 0
0.00333333341 -0.0250000004 0
0.0 -0.0250000004 0
0.100000001 -0.0283333343 0
0.0966666639 -0.0283333343 0
0.0933333337 -0.0283333343 0
0.0900000036 -0.0283333343 0
0.086666666 -0.0283333343 0
0.0833333358 -0.0283333343 0
0.0799999982 -0.0283333343 0
0.0766666681 -0.0283333343 0
0.0733333305 -0.0283333343 0
0.0700000003 -0.0283333343 0
0.0666666701 -0.0283333343 0
0.0633333325 -0.0283333343 0
0.0599999987 -0.0283333343 0
0.0566666685 -0.0283333343 0
0.0533333346 -0.0283333343 0
0.0500000007 -0.0283333343 0
0.0466666669 -0.0283333343 0
0.043333333 -0.0283333343 0
0.0399999991 -0.0283333343 0
0.0366666652 -0.0283333343 0
0.0333333351 -0.0283333343 0
0.0299999993 -0.0283333343 0
0.0266666673 -0.0283333343 0
0.0233333334 -0.0283333343 0
0.0199999996 -0.0283333343 0
0.0166666675 -0.0283333343 0
0.0133333337 -0.0283333343 0
0.00999999978 -0.0283333343 0
0.00666666683 -0.0283333343 0
0.00333333341 -0.0283333343 0
0.0 -0.0283333343 0
[...]
POINT_DATA 961
SCALARS Temp float 1
LOOKUP_TABLE default
292.13421905089547
260.32864799859874
237.22812406796461
221.68676720332155
212.0129201154563
206.43704183868388
203.45387421079218
201.96720506680714
201.27416414120728
200.9705675827601
200.84500361271142
200.79574876716444
200.77734766170607
200.77078953983033
200.7686047529324
200.76809650031998
200.7686047527831
200.77078953933676
200.7773476727457
200.79574879905297
200.84500351626727
200.97056766556796
201.27416459707194
201.96720495016837
203.45387627990834
206.43703910855493
212.0129230361516
221.68675847518207
237.22812674978834
260.32867808193566
292.13421877065514
260.3286802638541
227.4083137108678
203.49703798360053
187.40925572813583
177.39452972473205
171.62166999707114
168.53281676819032
166.99332065598827
166.27557695798754
165.96112509894317
165.83105755247735
165.78003071981726
165.76096566902334
165.75417025506147
165.75190621796122
165.7513794981732
165.7519062178064
165.7541702545501
165.76096568046177
165.78003075285437
165.83105745256898
165.96112518471622
166.27557743012113
166.99332053518938
168.53281891070512
171.6216671703265
177.39453274845891
187.40924669273872
203.4970407596124
227.40834484930562
260.32867997383386
237.22812838007005
203.49700822598678
178.99397877715228
162.50543500841542
152.23920413075527
146.3200038786472
143.15203791279225
141.57267870729794
140.83613995495463
140.51336010990107
140.37980910415502
140.3274006880797
140.3078139806342
140.3008307668101
140.29850360119084
140.29796210718104
140.2985036010317
140.30083076628452
140.30781399238685
140.32740072201472
140.37980900155648
140.51336019795784
140.83614043950755
141.57267858332818
143.15204011044273
146.3200009797906
152.2392072307289
162.5054257469114
178.99398162203994
203.4970401330928
237.22812808302265
221.68675880294873
187.40921225410335
162.5054214453047
145.74369106491167
135.3046363094733
129.28394104316266
126.06054460182894
124.4529527029659
123.70295439766168
123.3741441063507
123.23804290797631
123.18461223828028
123.16463558586153
123.15751062864729
123.1551354069796
123.15458260206461
123.15513540681727
123.1575106281108
123.16463559784974
123.18461227288238
123.23804280339787
123.37414419606986
123.70295489114761
124.45295257671991
126.0605468382915
129.28393809397818
135.30463946205248
145.7436816485826
162.50542433695762
187.4092446804833
221.68675850124757
212.012923459428
177.3944980604639
152.23920298337947
135.30464907661698
124.75517534775994
118.66888706682269
115.40921256931034
113.78289376281809
113.02384363299304
112.69092108229336
112.55305688579573
112.49891003381737
112.47865666983492
112.47142990700345
112.46901979873073
112.46845872422944
112.4690197985659
112.47142990645919
112.47865668199142
112.49891006888879
112.55305677983944
112.69092117315351
113.02384413251997
113.78289363503664
115.40921483132331
118.6688840848593
124.75517853411742
135.30463956179972
152.23920590447477
177.3945308117223
212.01292315489113
206.43704054684193
171.62163333141632
146.3199977827547
129.2839488613722
118.6688819844929
112.54310689959411
109.2612686816985
107.6233274155953
106.85856720608228
106.52300750573784
106.3839941204522
106.32937294033518
106.30893347751108
106.30163724730656
106.29920302706657
106.29863618843414
106.29920302690003
106.30163724675684
106.30893348978117
106.32937297571941
106.38399401359054
106.52300759733524
106.85856770944538
107.62332728684191
109.26127095942907
112.54310389771817
118.66888519103304
129.28393928834643
146.3200007210459
171.62166627104116
206.43704024071508
203.45387661006887
168.53278381580483
143.15203572199047
126.06055643979903
115.40921150821403
109.26127274884546
105.96678791736879
104.32209665612001
103.553958535523
103.21680926381
103.07709012403312
103.02217225171498
103.00161430057581
102.99427309115066
102.99182302490445
102.99125236089849
102.99182302473675
102.99427309059742
103.00161431291889
103.02217228729607
103.0770900166101
103.21680935585604
103.55395904117252
104.32209652678925
105.96679020413741
109.26126973567929
115.40921472598876
126.06054683476131
143.15203866961772
168.53281685686758
203.45387630311976
201.96720554539888
166.99328566028635
141.57267446904018
124.45296248095202
113.78289059561241
107.62332937167396
104.32209452824648
102.6737309111154
101.90371768278926
101.56566763168499
101.42554017605123
101.37044709941217
101.34981776946618
101.34244894544342
101.33998898602627
101.33941590723998
101.3399889858579
101.342448944888
101.34981778185363
101.37044713511025
101.42554006830012
101.56566772398753
101.90371818971873
102.6737307814626
104.32209681987963
107.62332635252282
113.78289381922662
124.45295285948971
141.5726774213932
166.99331875225332
201.967205238056
201.27416503283732
166.27554236451164
140.83613615230033
123.7029646306848
113.02384091560232
106.85856962027464
103.5539568636897
101.90371814232276
101.1327268377888
100.79419644155998
100.65384632185538
100.59865554894212
100.57798553860722
100.57060064441373
100.56813482016874
100.56756029240128
100.56813481999998
100.57060064385708
100.57798555102002
100.59865558470634
100.65384621392329
100.79419653400103
101.13272734539187
101.9037180125012
103.55395915777905
106.85856659814988
113.02384414205929
123.70295500133356
140.83613910689243
166.27557548037902
201.27416472531917
200.97056791920872
165.9610899191904
140.5133557155617
123.37415374186223
112.69091775513775
106.5230093076712
103.21680697493892
101.56566747370137
100.79419582289748
100.45542401942608
100.31495932395323
100.25971707389552
100.23902512110865
100.23163136160525
100.22916223663545
100.22858688266541
100.22916223646642
100.2316313610479
100.23902513353536
100.25971710969472
100.31495921592676
100.45542411193756
100.79419633083468
101.56566734379655
103.21680927019455
106.52300628415743
112.69092098289542
123.37414410895
140.51335867115105
165.96112304560384
200.97056761161767
200.84500384864097
165.83102226389963
140.3798046022352
123.23805243599698
112.55305344762978
106.38399581138967
103.07708772270114
101.42553990575406
100.65384559054093
100.3149592113958
100.17443879533073
100.11917088473452
100.09846772164109
100.09106932381361
100.08859843494847
100.08802263332997
100.08859843477939
100.09106932325588
100.09846773407496
100.11917092055134
100.17443868725788
100.3149593039411
100.6538460986344
101.42553977581058
103.0770900184792
106.38399278726368
112.55305667594908
123.23804280156779
140.37980755824375
165.83105539470623
200.84500354102138
200.79574910087513
165.77999553068008
140.32739628992752
123.18462187294627
112.49890670285423
106.32937473979297
103.02216995910491
101.37044693837986
100.59865492701103
100.25971707090369
100.11917099437052
100.06389096406653
100.04318237016116
100.03578166909882
100.0333098848427
100.03273385271913
100.03330988467367
100.03578166854092
100.04318238259859
100.06389099989174
100.11917088627598
100.25971716346442
100.59865543517397
101.3704468084193
103.02217225510483
106.3293717154113
112.4989099314033
123.18461223790455
140.32739924610328
165.7800286632218
200.79574879324497
200.7773479808009
165.7609304640474
140.30780956683287
123.16464520490574
112.47865332271198
106.30893526082252
103.00161199158248
101.34981759208203
100.57798490026644
100.23902510172763
100.0984678148901
100.04318235376066
100.02247126303114
100.01506947610532
100.01259726014875
100.01202111527
100.01259725997953
100.01506947554726
100.0224712754702
100.04318238958972
100.0984677067859
100.2390251942949
100.57798540845837
101.34981746211442
103.00161428767164
106.3089322363396
112.47865655135026
123.16463556962893
140.30781252307196
165.760963597242
200.77734767316707
200.77078984941696
165.7541350399837
140.3008263428502
123.15752023744949
112.47142654937285
106.30163902006873
102.99427077148731
101.34244875738189
100.57059999536155
100.23163133151466
100.09106940635071
100.03578164197911
100.01506946538525
100.00766719442275
100.00519478175644
100.0046185847697
100.00519478158724
100.0076671938646
100.01506947782497
100.03578167780965
100.0910692982424
100.23163142408454
100.57060050356509
101.34244862741147
102.99427306761058
106.30163599554751
112.47142977804428
123.15751060208679
140.30082929911228
165.75416817341235
200.770789541782
200.7686050636814
165.75187100400407
140.29849917845686
123.15514501707395
112.46901644236932
106.29920480113014
102.99182070653042
101.3399887992703
100.56813417242067
100.2291622078556
100.08859851879885
100.03330985903514
100.01259725074122
100.00519478306929
100.00272228889133
100.00214607004304
100.0027222887221
100.00519478251111
100.01259726318106
100.03330989486614
100.0885984106889
100.22916230042651
100.56813468062829
101.33998866929876
102.99182300266591
106.29920177659558
112.46901967105214
123.1551353816818
140.2985021347266
165.7519041375112
200.768604756046
200.76809681178867
165.75134428494235
140.29795768521095
123.15459221294857
112.46845536865963
106.2986379633022
102.99125004332947
101.33941572129517
100.5675596454651
100.22858685470011
100.08802271799577
100.03273382772673
100.01202110667803
100.00461858689806
100.00214607085876
100.00156984610132
100.00214607068963
100.00461858633997
100.01202111911789
100.03273386355792
100.08802260988546
100.22858694727115
100.5675601536739
101.33941559132323
102.99125233946786
106.29863493876432
112.46845859734506
123.15458257754935
140.29796064148252
165.75137741846774
200.7680965041531
200.76860506408357
165.7518710044208
140.2984991788853
123.15514501751123
112.46901644281299
106.29920480157834
102.99182070698161
101.33998879972343
100.5681341728748
100.22916220831034
100.08859851925396
100.0333098594903
100.01259725119652
100.00519478352467
100.00272228934672
100.00214607049848
100.00272228917748
100.00519478296654
100.0125972636364
100.03330989532142
100.08859841114415
100.22916230088126
100.56813468108248
101.33998866975172
102.99182300311702
106.2992017770438
112.46901967149586
123.15513538211914
140.29850213515505
165.75190413792808
200.76860475644827
200.77078985059757
165.7541350412072
140.30082634410766
123.1575202387325
112.47142655067435
106.30163902138302
102.99427077280984
101.34244875870961
100.57059999669224
100.23163133284694
100.09106940768388
100.03578164331265
100.0150694667191
100.0076671957566
100.00519478309047
100.00461858610349
100.00519478292112
100.00766719519838
100.0150694791587
100.03578167914323
100.09106929957562
100.2316314254168
100.57060050489558
101.34244862873895
102.99427306893307
106.30163599686172
112.47142977934577
123.15751060336976
140.30082930036968
165.7541681746358
200.77078954296258
200.7773479841419
165.7609304675091
140.30780957038962
123.16464520853366
112.47865332639066
106.30893526453549
103.00161199531743
101.34981759583032
100.57798490402236
100.2390251054878
100.09846781865232
100.04318235752399
100.02247126679495
100.01506947986933
100.01259726391278
100.01202111903393
100.01259726374344
100.01506947931122
100.02247127923397
100.04318239335298
100.09846771054809
100.23902519805493
100.57798541221416
101.34981746586251
103.0016142914065
106.30893224005253
112.47865655502898
123.16463557325682
140.30781252662857
165.76096360070363
200.77734767650801
200.79574911085945
165.77999554102388
140.32739630055246
123.18462188377981
112.49890671383451
106.32937475087095
103.02216997024443
101.37044694955587
100.59865493820776
100.25971708211114
100.1191710055835
100.0638909752821
100.04318238137806
100.03578168031602
100.03330989606016
100.03273386393647
100.033309895891
100.03578167975812
100.04318239381524
100.06389101110719
100.11917089748876
100.25971717467168
100.5986554463703
101.37044681959517
103.0221722662441
106.32937172648924
112.49890994238355
123.18461224873798
140.32739925672809
165.7800286735657
200.79574880322937
200.84500392006237
165.83102233788586
140.37980467821126
123.23805251343619
112.5530535260859
106.38399589051272
103.07708780223689
101.42553998553076
100.65384567045008
100.31495929137381
100.17443887534256
100.11917096476215
100.09846780167562
100.09106940385098
100.08859851498696
100.08802271336862
100.08859851481783
100.09106940329309
100.09846781410943
100.11917100057887
100.17443876726962
100.3149593839189
100.65384617854349
101.42553985558706
103.07709009801496
106.38399286638656
112.55305675440506
123.2380428790069
140.3798076342198
165.8310554686922
200.84500361244275
200.97056787284487
165.9610898711651
140.5133556662543
123.37415369161906
112.69091770425028
106.52300925636555
103.21680692337767
101.5656674219932
100.79419577110957
100.45542396759741
100.314959272105
100.2597170220382
100.2390250692473
100.2316313097422
100.22916218477178
100.22858683080165
100.22916218460273
100.23163130918482
100.239025081674
100.25971705783732
100.31495916407842
100.45542406010887
100.7941962790467
101.56566729208834
103.21680921863312
106.52300623285161
112.69092093200784
123.37414405870673
140.51335862184374
165.9611229975785
200.97056756525373
201.2741654269852
166.27554277272745
140.8361365712583
123.70296505737258
113.02384134752006
106.85857005551539
103.55395730091259
101.90371858065592
101.13272727670692
100.79419688076825
100.65384676119956
100.59865598834668
100.57798597803705
100.57060108385363
100.56813525961243
100.56756073184586
100.56813525944372
100.57060108329709
100.5779859904499
100.59865602411087
100.65384665326754
100.79419697320925
101.13272778430999
101.90371845083438
103.55395959500177
106.8585670333906
113.02384457397693
123.70295542802135
140.83613952585037
166.27557588859491
201.274165119467
201.96720529510085
166.99328540107373
141.5726742030588
124.45296221013719
113.78289032155797
107.62332909558418
104.32209425095797
102.67373063316494
101.90371740449531
101.56566735322322
101.42553989751205
101.37044682083909
101.34981749087915
101.34244866685086
101.33998870743191
101.33941562864509
101.3399887072635
101.34244866629552
101.34981750326668
101.37044685653733
101.42553978976095
101.56566744552582
101.90371791142465
102.6737305035121
104.32209654259115
107.62332607643299
113.78289354517209
124.45295258867483
141.572677155412
166.99331849304068
201.96720498775787
203.45387904079237
168.53278633275923
143.1520383037297
126.06055906715252
115.40921416560425
109.26127542471865
105.96679060387447
104.3220993483509
103.55396123064568
103.21681196030657
103.07709282114537
103.02217494908862
103.00161699805471
102.99427578866994
102.99182572243798
102.9912550584357
102.99182572227033
102.99427578811674
103.00161701039784
103.02217498466973
103.0770927137224
103.21681205235234
103.55396173629502
104.32209921901993
105.96679289064298
109.26127241155251
115.40921738337896
126.06054946211489
143.15204125135676
168.53281937382184
203.45387873384294
206.437041731566
171.62163455801604
146.3199990405094
129.28395014077694
118.6688832779239
112.54310820149367
109.2612699883673
107.62332872477452
106.85856851649974
106.52300881672944
106.38399543169524
106.32937425168232
106.30893478889911
106.30163855871005
106.29920433847543
106.29863749984445
106.29920433830902
106.30163855816053
106.30893480116941
106.32937428706636
106.38399532483331
106.52300890832673
106.8585690198625
107.62332859602081
109.26127226609756
112.54310519961763
118.66888648446397
129.28394056775105
146.3200019788006
171.62166749764063
206.4370414254389
212.01291948603034
177.3944939468452
152.23919876588556
135.30464478735578
124.75517101233669
118.66888270376293
115.40920819083287
113.78288937630843
113.02383924256395
112.6909166900665
112.55305249279068
112.49890564049342
112.47865227638648
112.47142551350903
112.46901540522043
112.46845433071529
112.46901540505553
112.4714255129648
112.47865228854305
112.49890567556473
112.55305238683431
112.69091678092627
113.02383974209063
113.78288924852669
115.40921045284561
118.66887972179931
124.75517419869414
135.3046352725383
152.23920168698066
177.3945266981036
212.0129191814935
221.6867657831668
187.4092194800017
162.5054288519063
145.7436985951682
135.3046439183294
129.28394869843294
126.06055228260227
124.45296039681287
123.7029620977829
123.37415180930162
123.23805061213197
123.18461994292188
123.16464329068953
123.15751833354344
123.15514311189911
123.15459030698953
123.15514311173682
123.15751833300702
123.16464330267779
123.18461997752378
123.23805050755338
123.37415189902062
123.70296259126843
124.4529602705666
126.06055451906455
129.2839457492482
135.3046470709082
145.74368917883896
162.5054317435591
187.40925190638123
221.68676548146567
237.22812154830999
203.49700115421095
178.99397152971238
162.50542764157137
152.23919668864153
146.31999639251407
143.1520304027303
141.5726711851095
140.83613242701566
140.5133525793993
140.37980157257536
140.32739315607026
140.3078064484617
140.30082323457881
140.2984960689394
140.29795457492486
140.2984960687803
140.3008232340529
140.30780646021432
140.3273931900052
140.37980146997674
140.51335266745593
140.83613291156837
141.57267106113946
143.15203260038035
146.319993493657
152.2391997886148
162.50541838006697
178.99397437459976
203.4970330613169
237.22812125126254
260.3287054466142
227.4083397768445
203.49706469300284
187.4092828721864
177.3945571407006
171.62169757068745
168.53284442669494
166.99334835708763
166.27560467908364
165.96115282886186
165.83108528607067
165.780058454862
165.7609934046141
165.754197990848
165.75193395381322
165.75140723404053
165.75193395365847
165.7541979903365
165.76099341605251
165.78005848789914
165.83108518616243
165.96115291463485
166.27560515121723
166.9933482362885
168.5328465692095
171.6216947439425
177.3945601644273
187.40927383678925
203.49706746901424
227.40837091528124
260.3287051565937
292.1342188867819
260.32864782876874
237.22812389404925
221.68676702671877
212.01291993722896
206.43704165955288
203.45387403119773
201.96720488699253
201.27416396129527
200.97056740280797
200.8450034327436
200.79574858719116
200.77734748173071
200.77078935985426
200.76860457295592
200.7680963203436
200.76860457280685
200.77078935936066
200.77734749277025
200.79574861907955
200.8450033362997
200.97056748561596
201.2741644171602
201.9672047703537
203.45387610031372
206.43703892942372
212.012922857924
221.68675829857904
237.22812657587266
260.3286779121055
292.1342186065414
