# vtk DataFile Version 2.0
Unstructured Grid Example
ASCII
DATASET UNSTRUCTURED_GRID

POINTS 961 float
0.100000001 0.00499999989 0
0.0966666639 0.00499999989 0
0.0933333337 0.00499999989 0
0.0900000036 0.00499999989 0
0.086666666 0.00499999989 0
0.0833333358 0.00499999989 0
0.0799999982 0.00499999989 0
0.0766666681 0.00499999989 0
0.0733333305 0.00499999989 0
0.0700000003 0.00499999989 0
0.0666666701 0.00499999989 0
0.0633333325 0.00499999989 0
0.0599999987 0.00499999989 0
0.0566666685 0.00499999989 0
0.0533333346 0.00499999989 0
0.0500000007 0.00499999989 0
0.0466666669 0.00499999989 0
0.043333333 0.00499999989 0
0.0399999991 0.00499999989 0
0.0366666652 0.00499999989 0
0.0333333351 0.00499999989 0
0.0299999993 0.00499999989 0
0.0266666673 0.00499999989 0
0.0233333334 0.00499999989 0
0.0199999996 0.00499999989 0
0.0166666675 0.00499999989 0
0.0133333337 0.00499999989 0
0.00999999978 0.00499999989 0
0.00666666683 0.00499999989 0
0.00333333341 0.00499999989 0
0.0 0.00499999989 0
0.100000001 0.00166666671 0
0.0966666639 0.00166666671 0
0.0933333337 0.00166666671 0
0.0900000036 0.00166666671 0
0.086666666 0.00166666671 0
0.0833333358 0.00166666671 0
0.0799999982 0.00166666671 0
0.0766666681 0.00166666671 0
0.0733333305 0.00166666671 0
0.0700000003 0.00166666671 0
0.0666666701 0.00166666671 0
0.0633333325 0.00166666671 0
0.0599999987 0.00166666671 0
0.0566666685 0.00166666671 0
0.0533333346 0.00166666671 0
0.0500000007 0.00166666671 0
0.0466666669 0.00166666671 0
0.043333333 0.00166666671 0
0.0399999991 0.00166666671 0
0.0366666652 0.00166666671 0
0.0333333351 0.00166666671 0
0.0299999993 0.00166666671 0
0.0266666673 0.00166666671 0
0.0233333334 0.00166666671 0
0.0199999996 0.00166666671 0
0.0166666675 0.00166666671 0
0.0133333337 0.00166666671 0
0.00999999978 0.00166666671 0
0.00666666683 0.00166666671 0
0.00333333341 0.00166666671 0
0.0 0.00166666671 0
0.100000001 -0.00166666671 0
0.0966666639 -0.00166666671 0
0.0933333337 -0.00166666671 0
0.0900000036 -0.00166666671 0
0.086666666 -0.00166666671 0
0.0833333358 -0.00166666671 0
0.0799999982 -0.00166666671 0
0.0766666681 -0.00166666671 0
0.0733333305 -0.00166666671 0
0.0700000003 -0.00166666671 0
0.0666666701 -0.00166666671 0
0.0633333325 -0.00166666671 0
0.0599999987 -0.00166666671 0
0.0566666685 -0.00166666671 0
0.0533333346 -0.00166666671 0
0.0500000007 -0.00166666671 0
0.0466666669 -0.00166666671 0
0.043333333 -0.00166666671 0
0.0399999991 -0.00166666671 0
0.0366666652 -0.00166666671 0
0.0333333351 -0.00166666671 0
0.0299999993 -0.00166666671 0
0.0266666673 -0.00166666671 0
0.0233333334 -0.00166666671 0
0.0199999996 -0.00166666671 0
0.0166666675 -0.00166666671 0
0.0133333337 -0.00166666671 0
0.00999999978 -0.00166666671 0
0.00666666683 -0.00166666671 0
0.00333333341 -0.00166666671 0
0.0 -0.00166666671 0
0.100000001 -0.00499999989 0
0.0966666639 -0.00499999989 0
0.0933333337 -0.00499999989 0
0.0900000036 -0.00499999989 0
0.086666666 -0.00499999989 0
0.0833333358 -0.00499999989 0
0.0799999982 -0.00499999989 0
0.0766666681 -0.00499999989 0
0.0733333305 -0.00499999989 0
0.0700000003 -0.00499999989 0
0.0666666701 -0.00499999989 0
0.0633333325 -0.00499999989 0
0.0599999987 -0.00499999989 0
0.0566666685 -0.00499999989 0
0.0533333346 -0.00499999989 0
0.0500000007 -0.00499999989 0
0.0466666669 -0.00499999989 0
0.043333333 -0.00499999989 0
0.0399999991 -0.00499999989 0
0.0366666652 -0.00499999989 0
0.0333333351 -0.00499999989 0
0.0299999993 -0.00499999989 0
0.0266666673 -0.00499999989 0
0.0233333334 -0.00499999989 0
0.0199999996 -0.00499999989 0
0.0166666675 -0.00499999989 0
0.0133333337 -0.00499999989 0
0.00999999978 -0.00499999989 0
0.00666666683 -0.00499999989 0
0.00333333341 -0.00499999989 0
0.0 -0.00499999989 0
0.100000001 -0.00833333377 0
0.0966666639 -0.00833333377 0
0.0933333337 -0.00833333377 0
0.0900000036 -0.00833333377 0
0.086666666 -0.00833333377 0
0.0833333358 -0.00833333377 0
0.0799999982 -0.00833333377 0
0.0766666681 -0.00833333377 0
0.0733333305 -0.00833333377 0
0.0700000003 -0.00833333377 0
0.0666666701 -0.00833333377 0
0.0633333325 -0.00833333377 0
0.0599999987 -0.00833333377 0
0.0566666685 -0.00833333377 0
0.0533333346 -0.00833333377 0
0.0500000007 -0.00833333377 0
0.0466666669 -0.00833333377 0
0.043333333 -0.00833333377 0
0.0399999991 -0.00833333377 0
0.0366666652 -0.00833333377 0
0.0333333351 -0.00833333377 0
0.0299999993 -0.00833333377 0
0.0266666673 -0.00833333377 0
0.0233333334 -0.00833333377 0
0.0199999996 -0.00833333377 0
0.0166666675 -0.00833333377 0
0.0133333337 -0.00833333377 0
0.00999999978 -0.00833333377 0
0.00666666683 -0.00833333377 0
0.00333333341 -0.00833333377 0
0.0 -0.00833333377 0
0.100000001 -0.0116666667 0
0.0966666639 -0.0116666667 0
0.0933333337 -0.0116666667 0
0.0900000036 -0.0116666667 0
0.086666666 -0.0116666667 0
0.0833333358 -0.0116666667 0
0.0799999982 -0.0116666667 0
0.0766666681 -0.0116666667 0
0.0733333305 -0.0116666667 0
0.0700000003 -0.0116666667 0
0.0666666701 -0.0116666667 0
0.0633333325 -0.0116666667 0
0.0599999987 -0.0116666667 0
0.0566666685 -0.0116666667 0
0.0533333346 -0.0116666667 0
0.0500000007 -0.0116666667 0
0.0466666669 -0.0116666667 0
0.043333333 -0.0116666667 0
0.0399999991 -0.0116666667 0
0.0366666652 -0.0116666667 0
0.0333333351 -0.0116666667 0
0.0299999993 -0.0116666667 0
0.0266666673 -0.0116666667 0
0.0233333334 -0.0116666667 0
0.0199999996 -0.0116666667 0
0.0166666675 -0.0116666667 0
0.0133333337 -0.0116666667 0
0.00999999978 -0.0116666667 0
0.00666666683 -0.0116666667 0
0.00333333341 -0.0116666667 0
0.0 -0.0116666667 0
0.100000001 -0.0149999997 0
0.0966666639 -0.0149999997 0
0.0933333337 -0.0149999997 0
0.0900000036 -0.0149999997 0
0.086666666 -0.0149999997 0
0.0833333358 -0.0149999997 0
0.0799999982 -0.0149999997 0
0.0766666681 -0.0149999997 0
0.0733333305 -0.0149999997 0
0.0700000003 -0.0149999997 0
0.0666666701 -0.0149999997 0
0.0633333325 -0.0149999997 0
0.0599999987 -0.0149999997 0
0.0566666685 -0.0149999997 0
0.0533333346 -0.0149999997 0
0.0500000007 -0.0149999997 0
0.0466666669 -0.0149999997 0
0.043333333 -0.0149999997 0
0.0399999991 -0.0149999997 0
0.0366666652 -0.0149999997 0
0.0333333351 -0.0149999997 0
0.0299999993 -0.0149999997 0
0.0266666673 -0.0149999997 0
0.0233333334 -0.0149999997 0
0.0199999996 -0.0149999997 0
0.0166666675 -0.0149999997 0
0.0133333337 -0.0149999997 0
0.00999999978 -0.0149999997 0
0.00666666683 -0.0149999997 0
0.00333333341 -0.0149999997 0
0.0 -0.0149999997 0
0.100000001 -0.0183333326 0
0.0966666639 -0.0183333326 0
0.0933333337 -0.0183333326 0
0.0900000036 -0.0183333326 0
0.086666666 -0.0183333326 0
0.0833333358 -0.0183333326 0
0.0799999982 -0.0183333326 0
0.0766666681 -0.0183333326 0
0.0733333305 -0.0183333326 0
0.0700000003 -0.0183333326 0
0.0666666701 -0.0183333326 0
0.0633333325 -0.0183333326 0
0.0599999987 -0.0183333326 0
0.0566666685 -0.0183333326 0
0.0533333346 -0.0183333326 0
0.0500000007 -0.0183333326 0
0.0466666669 -0.0183333326 0
0.043333333 -0.0183333326 0
0.0399999991 -0.0183333326 0
0.0366666652 -0.0183333326 0
0.0333333351 -0.0183333326 0
0.0299999993 -0.0183333326 0
0.0266666673 -0.0183333326 0
0.0233333334 -0.0183333326 0
0.0199999996 -0.0183333326 0
0.0166666675 -0.0183333326 0
0.0133333337 -0.0183333326 0
0.00999999978 -0.0183333326 0
0.00666666683 -0.0183333326 0
0.00333333341 -0.0183333326 0
0.0 -0.0183333326 0
0.100000001 -0.0216666665 0
0.0966666639 -0.0216666665 0
0.0933333337 -0.0216666665 0
0.0900000036 -0.0216666665 0
0.086666666 -0.0216666665 0
0.0833333358 -0.0216666665 0
0.0799999982 -0.0216666665 0
0.0766666681 -0.0216666665 0
0.0733333305 -0.0216666665 0
0.0700000003 -0.0216666665 0
0.0666666701 -0.0216666665 0
0.0633333325 -0.0216666665 0
0.0599999987 -0.0216666665 0
0.0566666685 -0.0216666665 0
0.0533333346 -0.0216666665 0
0.0500000007 -0.0216666665 0
0.0466666669 -0.0216666665 0
0.043333333 -0.0216666665 0
0.0399999991 -0.0216666665 0
0.0366666652 -0.0216666665 0
0.0333333351 -0.0216666665 0
0.0299999993 -0.0216666665 0
0.0266666673 -0.0216666665 0
0.0233333334 -0.0216666665 0
0.0199999996 -0.0216666665 0
0.0166666675 -0.0216666665 0
0.0133333337 -0.0216666665 0
0.00999999978 -0.0216666665 0
0.00666666683 -0.0216666665 0
0.00333333341 -0.0216666665 0
0.0 -0.0216666665 0
0.100000001 -0.0250000004 0
0.0966666639 -0.0250000004 0
0.0933333337 -0.0250000004 0
0.0900000036 -0.0250000004 0
0.086666666 -0.0250000004 0
0.0833333358 -0.0250000004 0
0.0799999982 -0.0250000004 0
0.0766666681 -0.0250000004 0
0.0733333305 -0.0250000004 0
0.0700000003 -0.0250000004 0
0.0666666701 -0.0250000004 0
0.0633333325 -0.0250000004 0
0.0599999987 -0.0250000004 0
0.0566666685 -0.0250000004 0
0.0533333346 -0.0250000004 0
0.0500000007 -0.0250000004 0
0.0466666669 -0.0250000004 0
0.043333333 -0.0250000004 0
0.0399999991 -0.0250000004 0
0.0366666652 -0.0250000004 0
0.0333333351 -0.0250000004 0
0.0299999993 -0.0250000004 0
0.0266666673 -0.0250000004 0
0.0233333334 -0.0250000004 0
0.0199999996 -0.0250000004 0
0.0166666675 -0.0250000004 0
0.0133333337 -0.0250000004 0
0.00999999978 -0.0250000004 0
0.00666666683 -0.0250000004 0
0.00333333341 -0.0250000004 0
0.0 -0.0250000004 0
0.100000001 -0.0283333343 0
0.0966666639 -0.0283333343 0
0.0933333337 -0.0283333343 0
0.0900000036 -0.0283333343 0
0.086666666 -0.0283333343 0
0.0833333358 -0.0283333343 0
0.0799999982 -0.0283333343 0
0.0766666681 -0.0283333343 0
0.0733333305 -0.0283333343 0
0.0700000003 -0.0283333343 0
0.0666666701 -0.0283333343 0
0.0633333325 -0.0283333343 0
0.0599999987 -0.0283333343 0
0.0566666685 -0.0283333343 0
0.0533333346 -0.0283333343 0
0.0500000007 -0.0283333343 0
0.0466666669 -0.0283333343 0
0.043333333 -0.0283333343 0
0.0399999991 -0.0283333343 0
0.0366666652 -0.0283333343 0
0.0333333351 -0.0283333343 0
0.0299999993 -0.0283333343 0
0.0266666673 -0.0283333343 0
0.0233333334 -0.0283333343 0
0.0199999996 -0.0283333343 0
0.0166666675 -0.0283333343 0
0.0133333337 -0.0283333343 0
0.00999999978 -0.0283333343 0
0.00666666683 -0.0283333343 0
0.00333333341 -0.0283333343 0
0.0 -0.0283333343 0
[...]
POINT_DATA 961
SCALARS Temp float 1
LOOKUP_TABLE default
268.2406890050143
236.3905727961811
214.78630502374568
201.5553009714275
194.23169372618474
190.55104405341183
188.8599500931998
188.143946059623
187.8622648638136
187.7584756697308
187.7223929729511
187.71047877516799
187.706720939133
187.7055843865824
187.70525875418542
187.70519054003424
187.70525875416473
187.70558438650446
187.70672094125038
187.71047878242467
187.7223929473959
187.75847569588663
187.8622650371492
188.14394601373056
188.8599511877362
190.55104240978156
194.23169581043442
201.555294021066
214.786307448263
236.39060196897304
268.2406886900125
236.39060413052303
203.4507493800481
181.10536837013507
167.41887998178976
159.8420755272775
156.03356958093906
154.28343720259224
153.54231022221373
153.2506965805447
153.14323026818562
153.10586346142824
153.09352347292923
153.08963081039252
153.08845333110034
153.0881159347949
153.08804525079952
153.08811593477344
153.08845333101956
153.08963081258588
153.09352348044547
153.10586343496186
153.14323029526986
153.25069676000317
153.54231017470198
154.28343833542138
156.03356788004334
159.84207768373375
167.41887279156475
181.10537087792295
203.45077955217027
236.39060380473347
214.78630897308562
181.1053393149657
158.25224896112405
144.25063834942293
136.4965760735425
132.5973779260894
130.80478874192897
130.0453442614821
129.74639095174055
129.63617242593858
129.59783287041589
129.58516669627065
129.58116966781716
129.57996020361122
129.5796135355122
129.57954089355502
129.57961353549007
129.5799602035282
129.58116967006958
129.58516670398666
129.59783284325576
129.63617245372146
129.74639113574588
130.04534421277165
130.80478990245635
132.59737618423944
136.49657828083795
144.25063099210504
158.25225152614962
181.10537016900162
214.78630863994957
201.55529438280354
167.41883957338743
144.25062713844747
130.0508130528765
122.18346110373372
118.22525801497807
116.40452542676121
115.63270886835164
115.3287067987942
115.21656188068386
115.17753025253845
115.16462846330991
115.16055498436282
115.15932178780464
115.15896816203075
115.15889403942053
115.15896816200818
115.15932178771989
115.16055498665871
115.16462847117094
115.17753022488145
115.21656190895943
115.32870698594816
115.6327088188145
116.40452660579535
118.22525624618225
122.18346334377384
130.05080558947978
144.25062973916147
167.41887084843736
201.55529404516457
194.23169624277207
159.84204428589484
136.49657446913847
122.18347094147454
114.2500942679027
110.25674523068824
108.41885772825077
107.63932133082666
107.33209595510729
107.2186938945023
107.17920121043834
107.16613941175484
107.16201308500425
107.16076321444407
107.16040463013547
107.16032944203286
107.1604046301126
107.16076321435817
107.16201308733042
107.16613941971484
107.17920118244733
107.21869392310221
107.33209614428819
107.6393212807598
108.41885891867825
110.25674344561618
114.25009652720806
122.18346341675897
136.49657709003944
159.84207579627636
194.231695902656
190.55104344559268
156.03353497835343
132.59737299527785
118.2252645243209
110.2567418297157
106.24421470810944
104.39671413720386
103.6127321928186
103.30359978113907
103.18943426775563
103.1496545715203
103.13649083224168
103.13233010639883
103.13106916694167
103.13070723365375
103.13063131746128
103.13070723363076
103.13106916685491
103.1323301087447
103.1364908402653
103.149654543319
103.18943429655481
103.30359997153143
103.6127321424368
104.39671533409091
106.24421291401113
110.2567440993872
118.22525696726507
132.5973756265727
156.033566608307
190.55104310425273
188.85995154268016
154.28340466952133
130.80478598408564
116.40453416632366
108.4188565575632
104.39671638729318
102.54425568198339
101.75790965449688
101.44773184737012
101.33313520891484
101.29318875802717
101.27996418018151
101.27578240465925
101.27451453404349
101.27415046084892
101.27407407303411
101.27415046082561
101.27451453395621
101.27578240701749
101.27996418824337
101.29318872970211
101.33313523782802
101.44773203843424
101.75790960394141
102.54425688224691
104.39671458858936
108.41885883235331
116.40452659363787
130.8047886202796
154.2834363550499
188.8599512007936
188.14394648389424
153.54227660254315
130.04534041323316
115.63271651033732
107.63931904255878
103.6127333230013
101.75790852852887
100.97039911412332
100.65968975008319
100.54486665370962
100.50482980372432
100.4915712374918
100.48737736477842
100.48610540510228
100.48574004002822
100.48566336304086
100.48574004000488
100.48610540501458
100.48737736714371
100.49157124557527
100.5048297753313
100.54486668268349
100.6596899414932
100.97039906347875
101.75790973042368
103.61273152212765
107.63932131967972
115.63270893068918
130.04534305155565
153.54230831187797
188.1439461417853
187.86226542622262
153.25066309375688
129.74638724883266
115.32871459286156
107.33209381672101
103.30360106381666
101.44773087318626
100.65968990285462
100.34872925836132
100.23379536414329
100.19371276025616
100.18043641870754
100.17623601931396
100.1749617884585
100.17459568719735
100.17451884256262
100.17459568717402
100.17496178837071
100.17623602168311
100.18043642680257
100.19371273182824
100.23379539314737
100.34872944993712
100.65968985216756
101.447732075813
103.30359926199469
107.3320960948266
115.3287070103357
129.7463898880143
153.25069481256475
187.86226508403038
187.75847602018692
153.14319655817758
129.63616849751662
115.21656944698445
107.2186915243614
103.18943531783057
101.33313400077202
100.54486657238377
100.23379512977488
100.11881062389908
100.0787063668767
100.06542131599561
100.06121761006729
100.05994219177951
100.05957569472444
100.05949875825804
100.0595756947012
100.05994219169176
100.06121761243848
100.06542132409638
100.07870633843184
100.11881065291725
100.23379532142488
100.54486652167775
101.33313520370464
103.18943351562193
107.21869380285526
115.21656186334712
129.63617113702284
153.14322828051462
187.7584756779658
187.72239329545084
153.10582972114116
129.59782891210375
115.177537788986
107.17919880953207
103.1496555908416
101.29318751879077
100.50482969134426
100.19371249476744
100.07870633577674
100.03859247488111
100.02530341991371
100.02109813959055
100.01982213671286
100.01945543891784
100.01937845494182
100.01945543889447
100.01982213662505
100.02109814196267
100.02530342801715
100.03859244642878
100.07870636480104
100.19371268644841
100.50482964063046
101.29318872184344
103.14965378848497
107.17920108816995
115.17753020494492
129.59783155172536
153.105861444718
187.72239295322032
187.71047912271933
153.09348975814507
129.58516276452428
115.16463602701025
107.16613703824072
103.13649187924807
101.27996296867715
100.49157115295309
100.18043618108382
100.06542131279272
100.02530344782177
100.01201266171392
100.0078066757822
100.0065304016621
100.00616360778768
100.00608660059724
100.00616360776439
100.00653040157415
100.00780667815485
100.01201266981849
100.02530341936624
100.06542134181952
100.18043637277714
100.49157110223634
101.27996417177424
103.13649007683802
107.16613931692902
115.1646284428302
129.58516540418492
153.09352148213512
187.71047878048594
187.70672128305878
153.08959709171293
129.58116573219715
115.16056254418184
107.16201070749773
103.13233114941023
101.27578118911512
100.48737727620401
100.17623577764462
100.06121760282171
100.02109816345612
100.00780667173787
100.00360038762345
100.00232399477161
100.00195715748549
100.00188013958295
100.00195715746214
100.00232399468378
100.00360038999614
100.00780667984287
100.02109813499914
100.06121763184949
100.17623596934251
100.48737722548607
101.27578239222773
103.13232934698189
107.16201298620281
115.16055495995641
129.58116837187032
153.0896288158346
187.70672094082454
187.70558472872835
153.08841961053395
129.57995626609156
115.15932934570732
107.16076083497586
103.1310702079836
101.27451331651064
100.48610531453767
100.17496154479417
100.05994218253925
100.01982215858332
100.00653039562175
100.00232399277566
100.00104755098138
100.00068069523219
100.00060367267884
100.00068069520874
100.00104755089343
100.0023239951484
100.00653040372688
100.01982213012575
100.05994221156737
100.17496173649363
100.48610526381943
101.27451451962844
103.1310684055492
107.16076311368624
115.15932176146762
129.57995890576856
153.0884513346957
187.70558438649388
187.70525909652477
153.0880822144166
129.5796095981966
115.15897572014758
107.1604022508784
103.13070827491158
101.27414924353045
100.48573994968035
100.17459544374952
100.05957568570132
100.01945546100593
100.00616360196489
100.00195715570702
100.00068069544967
100.00031383253663
100.00023680814512
100.0003138325132
100.00068069536175
100.00195715807979
100.00616361006998
100.01945543254818
100.05957571472953
100.17459563544942
100.48573989896181
101.2741504466498
103.13070647247537
107.1604045295904
115.15896813590354
129.5796122378746
153.08811393858988
187.70525875429013
187.7051908824722
153.08801153052065
129.5795369563441
115.15890159764542
107.16032706288406
103.13063235882903
101.27407285582568
100.48566327280383
100.17451859922552
100.05949874934622
100.01937847714113
100.00608659488559
100.00188013791576
100.00060367300755
100.00023680825632
100.00015978338756
100.00023680823304
100.00060367291962
100.0018801402885
100.0060866029907
100.01937844868328
100.05949877837428
100.17451879092553
100.48566322208517
101.27407405894539
103.13063055639235
107.16032934159638
115.15889401340047
129.57953959602236
153.08804325469637
187.70519054023754
187.70525909658323
153.0880822144772
129.5796095982589
115.15897572021112
107.16040225094287
103.13070827497663
101.27414924359596
100.48573994974606
100.17459544381542
100.05957568576741
100.0194554610719
100.00616360203091
100.00195715577301
100.00068069551568
100.00031383260259
100.00023680821116
100.00031383257928
100.0006806954278
100.0019571581458
100.006163610136
100.01945543261415
100.0595757147955
100.1745956355153
100.48573989902748
101.27415044671531
103.13070647254044
107.16040452965484
115.15896813596719
129.579612237937
153.08811393865062
187.70525875434876
187.70558472892307
153.08841961073577
129.5799562662988
115.15932934591865
107.16076083519003
103.13107020819989
101.2745133167281
100.48610531475599
100.17496154501278
100.05994218275809
100.01982215880228
100.00653039584076
100.00232399299466
100.0010475512003
100.00068069545112
100.00060367289771
100.00068069542766
100.0010475511124
100.00232399536738
100.00653040394585
100.01982213034475
100.05994221178604
100.17496173671209
100.48610526403749
101.27451451984572
103.13106840576545
107.16076311390054
115.1593217616789
129.57995890597581
153.0884513348975
187.70558438668866
187.70672128370688
153.0895970923841
129.5811657328866
115.16056254488451
107.16201070820965
103.13233115012808
101.2757811898368
100.48737727692792
100.17623577836979
100.06121760354745
100.02109816418206
100.00780667246404
100.00360038834967
100.00232399549782
100.00195715821167
100.00188014030903
100.00195715818822
100.00232399540985
100.00360039072231
100.007806680569
100.02109813572513
100.0612176325751
100.17623597006742
100.48737722620983
101.27578239294932
103.13232934769977
107.16201298691475
115.16055496065904
129.58116837255952
153.0896288165058
187.70672094147267
187.71047912500717
153.09348976051479
129.58516276695698
115.16463602948855
107.16613704075019
103.13649188177764
101.27996297121886
100.4915711555016
100.18043618363596
100.06542131534648
100.02530345037644
100.01201266426897
100.00780667833742
100.00653040421723
100.00616361034278
100.00608660315227
100.00616361031938
100.00653040412932
100.00780668070985
100.01201267237334
100.0253034219208
100.0654213443732
100.1804363753291
100.49157110478457
101.2799641743157
103.13649007936752
107.1661393194385
115.16462844530851
129.5851654066176
153.0935214845048
187.71047878277363
187.72239331466096
153.1058297410361
129.59782893251952
115.17753780977458
107.17919883057083
103.14965561203742
101.29318754007892
100.50482971268302
100.19371251613218
100.07870635715399
100.03859249626395
100.02530344129897
100.02109816097669
100.01982215809929
100.01945546030437
100.01937847632819
100.01945546028092
100.01982215801131
100.0210981633488
100.02530344940223
100.03859246781154
100.07870638617817
100.19371270781309
100.5048296619691
101.29318874313152
103.14965380968077
107.17920110920856
115.17753022573332
129.5978315721412
153.10586146461281
187.72239297243055
187.7584760060918
153.14319654358167
129.63616848254298
115.21656943174357
107.21869150894396
103.1894353023041
101.33313398518273
100.5448665567609
100.2337951141351
100.11881060825144
100.0787063512256
100.06542130034309
100.06121759441422
100.05994217612617
100.05957567907109
100.0594987426045
100.05957567904764
100.05994217603843
100.06121759678543
100.0654213084438
100.07870632278075
100.1188106372696
100.23379530578502
100.54486650605483
101.33313518811539
103.18943350009532
107.21869378743772
115.21656184810632
129.63617112204915
153.14322826591874
187.75847566387068
187.86226557521172
153.25066324800974
129.74638740699578
115.32871475373389
107.33209397933905
103.30360122747872
101.44773103742789
100.65969006739512
100.3487294230453
100.23379552889149
100.19371292503118
100.18043658349322
100.1762361841036
100.17496195324938
100.17459585198887
100.17451900735416
100.1745958519655
100.17496195316184
100.17623618647278
100.18043659158823
100.19371289660324
100.23379555789559
100.34872961462105
100.65969001670808
101.44773224005452
103.3035994256566
107.33209625744446
115.32870717120804
129.7463900461774
153.2506949668176
187.86226523301957
188.14394637730854
153.5422764922048
130.04534030013272
115.63271639534752
107.63931892637046
103.61273320610921
101.75790841125402
100.97039899665559
100.6596896325249
100.54486653611188
100.50482968611027
100.49157111987147
100.48737724715578
100.4861052874788
100.48573992240459
100.48566324541717
100.48573992238136
100.4861052873914
100.48737724952113
100.49157112795501
100.50482965771732
100.54486656508573
100.65968982393491
100.97039894601085
101.75790961314883
103.6127314052355
107.63932120349125
115.63270881569932
130.04534293845535
153.54230820153938
188.14394603519952
188.859952824948
154.28340599665287
130.80478734367463
116.40453554760525
108.41885795220477
104.3967177895123
102.54425708816558
101.75791106259517
101.44773325632825
101.3331366182329
101.29319016748634
101.27996558969286
101.27578381418893
101.27451594357927
101.27415187038658
101.27407548257231
101.2741518703634
101.274515943492
101.27578381654708
101.2799655977548
101.29319013916134
101.33313664714598
101.4477334473923
101.75791101203946
102.54425828842871
104.39671599080837
108.41886022699485
116.40452797491952
130.80478997986833
154.2834376821812
188.8599524830612
190.55104420626185
156.03353576547093
132.5973738012035
118.22526534252536
110.25674265526466
106.24421553768533
104.39671496880868
103.61273302536686
103.30360061409425
103.18943510087459
103.14965540470106
103.1364916654447
103.13233093960922
103.1310700001546
103.13070806686747
103.13063215067511
103.13070806684446
103.13107000006788
103.1323309419552
103.1364916734682
103.14965537649972
103.18943512967361
103.3036008044864
103.61273297498475
104.39671616569548
106.24421374358695
110.2567449249362
118.22525778546951
132.5973764324984
156.03356739542443
190.5510438649218
194.23169346393783
159.84204141072672
136.49657152601884
122.18346795447685
114.25009125500766
110.25674220380698
108.41885469443591
107.63931829384147
107.33209291677711
107.2186908556395
107.17919817137737
107.16613637262401
107.16201004585008
107.16076017528239
107.16040159097167
107.16032640286853
107.16040159094884
107.16076017519657
107.16201004817623
107.1661363805839
107.17919814338617
107.2186908842392
107.33209310595775
107.63931824377421
108.41885588486326
110.25674041873482
114.25009351431275
122.18346042976125
136.49657414691964
159.8420729211083
194.23169312382177
201.55530000520028
167.41884538972488
144.2506330897076
130.05081908964112
122.18346718982204
118.22526412702311
116.40453155132359
115.63271499847863
115.32871293121704
115.21656801399185
115.17753638616763
115.1646345970495
115.16056111813846
115.1593279215915
115.158974295821
115.15890017321155
115.15897429579836
115.15932792150682
115.16056112043435
115.16463460491032
115.1775363585104
115.21656804226721
115.32871311837062
115.63271494894107
116.4045327303574
118.22526235822684
122.18346942986182
130.05081162624415
144.25063569042135
167.4188766647746
201.5552996675613
214.78630293307583
181.10533306728823
158.25224257028327
144.25063186897526
136.49656954218725
132.59737136840573
130.8047821717837
130.04533768590275
129.74638437396175
129.63616584732716
129.5978262915077
129.5851601172622
129.58116308877632
129.57995362456063
129.57960695645852
129.57953431450065
129.57960695643644
129.57995362447747
129.58116309102877
129.58516012497805
129.5978262643475
129.63616587510992
129.746384557967
130.04533763719206
130.8047833323108
132.59736962655532
136.4965717494824
144.25062451165707
158.25224513530858
181.10536392132423
214.78630259993972
236.390628555397
203.45077464162298
181.10539420266932
167.4189061668456
159.84210190938137
156.03359606315942
154.2834637313414
153.54233677089175
153.25072313715168
153.14325682774594
153.10589002202585
153.09355003387262
153.08965737144607
153.0884798921876
153.08814249589156
153.08807181189817
153.08814249587016
153.0884798921066
153.08965737363945
153.09355004138894
153.1058899955595
153.14325685483013
153.25072331661005
153.54233672337978
154.2834648641702
156.03359436226353
159.84210406583733
167.41889897662037
181.10539671045686
203.45080481374413
236.39062822960756
268.2406887954607
236.39057257949793
214.78630480229538
201.55530074712365
194.23169350035266
190.55104382684434
188.85994986631172
188.14394583260716
187.86226463675058
187.75847544265167
187.72239274586664
187.71047854808202
187.70672071204643
187.7055841594958
187.70525852709864
187.7051903129476
187.70525852707783
187.7055841594177
187.70672071416382
187.71047855533857
187.72239272031143
187.75847546880732
187.8622648100862
188.1439457867145
188.85995096084787
190.5510421832138
194.23169558460228
201.5552937967621
214.78630722681254
236.39060175228974
268.24068848045897
