# vtk DataFile Version 2.0
Unstructured Grid Example
ASCII
DATASET UNSTRUCTURED_GRID

POINTS 961 float
0.100000001 0.00499999989 0
0.0966666639 0.00499999989 0
0.0933333337 0.00499999989 0
0.0900000036 0.00499999989 0
0.086666666 0.00499999989 0
0.0833333358 0.00499999989 0
0.0799999982 0.00499999989 0
0.0766666681 0.00499999989 0
0.0733333305 0.00499999989 0
0.0700000003 0.00499999989 0
0.0666666701 0.00499999989 0
0.0633333325 0.00499999989 0
0.0599999987 0.00499999989 0
0.0566666685 0.00499999989 0
0.0533333346 0.00499999989 0
0.0500000007 0.00499999989 0
0.0466666669 0.00499999989 0
0.043333333 0.00499999989 0
0.0399999991 0.00499999989 0
0.0366666652 0.00499999989 0
0.0333333351 0.00499999989 0
0.0299999993 0.00499999989 0
0.0266666673 0.00499999989 0
0.0233333334 0.00499999989 0
0.0199999996 0.00499999989 0
0.0166666675 0.00499999989 0
0.0133333337 0.00499999989 0
0.00999999978 0.00499999989 0
0.00666666683 0.00499999989 0
0.00333333341 0.00499999989 0
0.0 0.00499999989 0
0.100000001 0.00166666671 0
0.0966666639 0.00166666671 0
0.0933333337 0.00166666671 0
0.0900000036 0.00166666671 0
0.086666666 0.00166666671 0
0.0833333358 0.00166666671 0
0.0799999982 0.00166666671 0
0.0766666681 0.00166666671 0
0.0733333305 0.00166666671 0
0.0700000003 0.00166666671 0
0.0666666701 0.00166666671 0
0.0633333325 0.00166666671 0
0.0599999987 0.00166666671 0
0.0566666685 0.00166666671 0
0.0533333346 0.00166666671 0
0.0500000007 0.00166666671 0
0.0466666669 0.00166666671 0
0.043333333 0.00166666671 0
0.0399999991 0.00166666671 0
0.0366666652 0.00166666671 0
0.0333333351 0.00166666671 0
0.0299999993 0.00166666671 0
0.0266666673 0.00166666671 0
0.0233333334 0.00166666671 0
0.0199999996 0.00166666671 0
0.0166666675 0.00166666671 0
0.0133333337 0.00166666671 0
0.00999999978 0.00166666671 0
0.00666666683 0.00166666671 0
0.00333333341 0.00166666671 0
0.0 0.00166666671 0
0.100000001 -0.00166666671 0
0.0966666639 -0.00166666671 0
0.0933333337 -0.00166666671 0
0.0900000036 -0.00166666671 0
0.086666666 -0.00166666671 0
0.0833333358 -0.00166666671 0
0.0799999982 -0.00166666671 0
0.0766666681 -0.00166666671 0
0.0733333305 -0.00166666671 0
0.0700000003 -0.00166666671 0
0.0666666701 -0.00166666671 0
0.0633333325 -0.00166666671 0
0.0599999987 -0.00166666671 0
0.0566666685 -0.00166666671 0
0.0533333346 -0.00166666671 0
0.0500000007 -0.00166666671 0
0.0466666669 -0.00166666671 0
0.043333333 -0.00166666671 0
0.0399999991 -0.00166666671 0
0.0366666652 -0.00166666671 0
0.0333333351 -0.00166666671 0
0.0299999993 -0.00166666671 0
0.0266666673 -0.00166666671 0
0.0233333334 -0.00166666671 0
0.0199999996 -0.00166666671 0
0.0166666675 -0.00166666671 0
0.0133333337 -0.00166666671 0
0.00999999978 -0.00166666671 0
0.00666666683 -0.00166666671 0
0.00333333341 -0.00166666671 0
0.0 -0.00166666671 0
0.100000001 -0.00499999989 0
0.0966666639 -0.00499999989 0
0.0933333337 -0.00499999989 0
0.0900000036 -0.00499999989 0
0.086666666 -0.00499999989 0
0.0833333358 -0.00499999989 0
0.0799999982 -0.00499999989 0
0.0766666681 -0.00499999989 0
0.0733333305 -0.00499999989 0
0.0700000003 -0.00499999989 0
0.0666666701 -0.00499999989 0
0.0633333325 -0.00499999989 0
0.0599999987 -0.00499999989 0
0.0566666685 -0.00499999989 0
0.0533333346 -0.00499999989 0
0.0500000007 -0.00499999989 0
0.0466666669 -0.00499999989 0
0.043333333 -0.00499999989 0
0.0399999991 -0.00499999989 0
0.0366666652 -0.00499999989 0
0.0333333351 -0.00499999989 0
0.0299999993 -0.00499999989 0
0.0266666673 -0.00499999989 0
0.0233333334 -0.00499999989 0
0.0199999996 -0.00499999989 0
0.0166666675 -0.00499999989 0
0.0133333337 -0.00499999989 0
0.00999999978 -0.00499999989 0
0.00666666683 -0.00499999989 0
0.00333333341 -0.00499999989 0
0.0 -0.00499999989 0
0.100000001 -0.00833333377 0
0.0966666639 -0.00833333377 0
0.0933333337 -0.00833333377 0
0.0900000036 -0.00833333377 0
0.086666666 -0.00833333377 0
0.0833333358 -0.00833333377 0
0.0799999982 -0.00833333377 0
0.0766666681 -0.00833333377 0
0.0733333305 -0.00833333377 0
0.0700000003 -0.00833333377 0
0.0666666701 -0.00833333377 0
0.0633333325 -0.00833333377 0
0.0599999987 -0.00833333377 0
0.0566666685 -0.00833333377 0
0.0533333346 -0.00833333377 0
0.0500000007 -0.00833333377 0
0.0466666669 -0.00833333377 0
0.043333333 -0.00833333377 0
0.0399999991 -0.00833333377 0
0.0366666652 -0.00833333377 0
0.0333333351 -0.00833333377 0
0.0299999993 -0.00833333377 0
0.0266666673 -0.00833333377 0
0.0233333334 -0.00833333377 0
0.0199999996 -0.00833333377 0
0.0166666675 -0.00833333377 0
0.0133333337 -0.00833333377 0
0.00999999978 -0.00833333377 0
0.00666666683 -0.00833333377 0
0.00333333341 -0.00833333377 0
0.0 -0.00833333377 0
0.100000001 -0.0116666667 0
0.0966666639 -0.0116666667 0
0.0933333337 -0.0116666667 0
0.0900000036 -0.0116666667 0
0.086666666 -0.0116666667 0
0.0833333358 -0.0116666667 0
0.0799999982 -0.0116666667 0
0.0766666681 -0.0116666667 0
0.0733333305 -0.0116666667 0
0.0700000003 -0.0116666667 0
0.0666666701 -0.0116666667 0
0.0633333325 -0.0116666667 0
0.0599999987 -0.0116666667 0
0.0566666685 -0.0116666667 0
0.0533333346 -0.0116666667 0
0.0500000007 -0.0116666667 0
0.0466666669 -0.0116666667 0
0.043333333 -0.0116666667 0
0.0399999991 -0.0116666667 0
0.0366666652 -0.0116666667 0
0.0333333351 -0.0116666667 0
0.0299999993 -0.0116666667 0
0.0266666673 -0.0116666667 0
0.0233333334 -0.0116666667 0
0.0199999996 -0.0116666667 0
0.0166666675 -0.0116666667 0
0.0133333337 -0.0116666667 0
0.00999999978 -0.0116666667 0
0.00666666683 -0.0116666667 0
0.00333333341 -0.0116666667 0
0.0 -0.0116666667 0
0.100000001 -0.0149999997 0
0.0966666639 -0.0149999997 0
0.0933333337 -0.0149999997 0
0.0900000036 -0.0149999997 0
0.086666666 -0.0149999997 0
0.0833333358 -0.0149999997 0
0.0799999982 -0.0149999997 0
0.0766666681 -0.0149999997 0
0.0733333305 -0.0149999997 0
0.0700000003 -0.0149999997 0
0.0666666701 -0.0149999997 0
0.0633333325 -0.0149999997 0
0.0599999987 -0.0149999997 0
0.0566666685 -0.0149999997 0
0.0533333346 -0.0149999997 0
0.0500000007 -0.0149999997 0
0.0466666669 -0.0149999997 0
0.043333333 -0.0149999997 0
0.0399999991 -0.0149999997 0
0.0366666652 -0.0149999997 0
0.0333333351 -0.0149999997 0
0.0299999993 -0.0149999997 0
0.0266666673 -0.0149999997 0
0.0233333334 -0.0149999997 0
0.0199999996 -0.0149999997 0
0.0166666675 -0.0149999997 0
0.0133333337 -0.0149999997 0
0.00999999978 -0.0149999997 0
0.00666666683 -0.0149999997 0
0.00333333341 -0.0149999997 0
0.0 -0.0149999997 0
0.100000001 -0.0183333326 0
0.0966666639 -0.0183333326 0
0.0933333337 -0.0183333326 0
0.0900000036 -0.0183333326 0
0.086666666 -0.0183333326 0
0.0833333358 -0.0183333326 0
0.0799999982 -0.0183333326 0
0.0766666681 -0.0183333326 0
0.0733333305 -0.0183333326 0
0.0700000003 -0.0183333326 0
0.0666666701 -0.0183333326 0
0.0633333325 -0.0183333326 0
0.0599999987 -0.0183333326 0
0.0566666685 -0.0183333326 0
0.0533333346 -0.0183333326 0
0.0500000007 -0.0183333326 0
0.0466666669 -0.0183333326 0
0.043333333 -0.0183333326 0
0.0399999991 -0.0183333326 0
0.0366666652 -0.0183333326 0
0.0333333351 -0.0183333326 0
0.0299999993 -0.0183333326 0
0.0266666673 -0.0183333326 0
0.0233333334 -0.0183333326 0
0.0199999996 -0.0183333326 0
0.0166666675 -0.0183333326 0
0.0133333337 -0.0183333326 0
0.00999999978 -0.0183333326 0
0.00666666683 -0.0183333326 0
0.00333333341 -0.0183333326 0
0.0 -0.0183333326 0
0.100000001 -0.0216666665 0
0.0966666639 -0.0216666665 0
0.0933333337 -0.0216666665 0
0.0900000036 -0.0216666665 0
0.086666666 -0.0216666665 0
0.0833333358 -0.0216666665 0
0.0799999982 -0.0216666665 0
0.0766666681 -0.0216666665 0
0.0733333305 -0.0216666665 0
0.0700000003 -0.0216666665 0
0.0666666701 -0.0216666665 0
0.0633333325 -0.0216666665 0
0.0599999987 -0.0216666665 0
0.0566666685 -0.0216666665 0
0.0533333346 -0.0216666665 0
0.0500000007 -0.0216666665 0
0.0466666669 -0.0216666665 0
0.043333333 -0.0216666665 0
0.0399999991 -0.0216666665 0
0.0366666652 -0.0216666665 0
0.0333333351 -0.0216666665 0
0.0299999993 -0.0216666665 0
0.0266666673 -0.0216666665 0
0.0233333334 -0.0216666665 0
0.0199999996 -0.0216666665 0
0.0166666675 -0.0216666665 0
0.0133333337 -0.0216666665 0
0.00999999978 -0.0216666665 0
0.00666666683 -0.0216666665 0
0.00333333341 -0.0216666665 0
0.0 -0.0216666665 0
0.100000001 -0.0250000004 0
0.0966666639 -0.0250000004 0
0.0933333337 -0.0250000004 0
0.0900000036 -0.0250000004 0
0.086666666 -0.0250000004 0
0.0833333358 -0.0250000004 0
0.0799999982 -0.0250000004 0
0.0766666681 -0.0250000004 0
0.0733333305 -0.0250000004 0
0.0700000003 -0.0250000004 0
0.0666666701 -0.0250000004 0
0.0633333325 -0.0250000004 0
0.0599999987 -0.0250000004 0
0.0566666685 -0.0250000004 0
0.0533333346 -0.0250000004 0
0.0500000007 -0.0250000004 0
0.0466666669 -0.0250000004 0
0.043333333 -0.0250000004 0
0.0399999991 -0.0250000004 0
0.0366666652 -0.0250000004 0
0.0333333351 -0.0250000004 0
0.0299999993 -0.0250000004 0
0.0266666673 -0.0250000004 0
0.0233333334 -0.0250000004 0
0.0199999996 -0.0250000004 0
0.0166666675 -0.0250000004 0
0.0133333337 -0.0250000004 0
0.00999999978 -0.0250000004 0
0.00666666683 -0.0250000004 0
0.00333333341 -0.0250000004 0
0.0 -0.0250000004 0
0.100000001 -0.0283333343 0
0.0966666639 -0.0283333343 0
0.0933333337 -0.0283333343 0
0.0900000036 -0.0283333343 0
0.086666666 -0.0283333343 0
0.0833333358 -0.0283333343 0
0.0799999982 -0.0283333343 0
0.0766666681 -0.0283333343 0
0.0733333305 -0.0283333343 0
0.0700000003 -0.0283333343 0
0.0666666701 -0.0283333343 0
0.0633333325 -0.0283333343 0
0.0599999987 -0.0283333343 0
0.0566666685 -0.0283333343 0
0.0533333346 -0.0283333343 0
0.0500000007 -0.0283333343 0
0.0466666669 -0.0283333343 0
0.043333333 -0.0283333343 0
0.0399999991 -0.0283333343 0
0.0366666652 -0.0283333343 0
0.0333333351 -0.0283333343 0
0.0299999993 -0.0283333343 0
0.0266666673 -0.0283333343 0
0.0233333334 -0.0283333343 0
0.0199999996 -0.0283333343 0
0.0166666675 -0.0283333343 0
0.0133333337 -0.0283333343 0
0.00999999978 -0.0283333343 0
0.00666666683 -0.0283333343 0
0.00333333341 -0.0283333343 0
0.0 -0.0283333343 0
[...]
POINT_DATA 961
SCALARS Temp float 1
LOOKUP_TABLE default
330.27073917337344
298.9407584932778
274.4262467939472
256.1908040816339
243.3154497583044
234.6933161987517
229.2173805025353
225.91735328789656
224.0283167606455
222.99974959265037
222.46614130423444
222.20192523458545
222.0769384326621
222.0206967134953
221.9975390273062
221.99134036270078
221.99753902550577
222.0206967085421
222.07693851514819
222.20192542150184
222.4661408417066
222.99974990574879
224.02831811890397
225.91735295724922
229.21738463067175
234.6933115153119
243.31545390908946
256.1907931185223
274.42624976856723
298.9407892302434
330.2707389933041
298.94079134396924
266.48199789296314
241.08377621227487
222.1905242776263
208.85032111628848
199.916582577403
194.24251823506967
190.82293805822147
188.8653711592386
187.7994349145596
187.24641028746112
186.97256506847626
186.8430159663745
186.78471810784131
186.76071264098226
186.75428685247783
186.76071263911572
186.78471810270676
186.8430160518734
186.97256526220897
187.2464098080889
187.79943523904177
188.86537256680282
190.8229377155768
194.24252251265435
199.91657772458728
208.8503254169996
222.19051291886538
241.08377929416133
266.4820297376611
298.9407911574403
274.42625143803303
241.08374606184606
214.99276264197212
195.58291947660973
181.8768544700769
172.69722454833953
166.86634841303533
163.35183402249436
161.3396546392144
160.2438261006503
159.67520881820397
159.3935995165428
159.26035682460207
159.20038775194084
159.17569082021447
159.16907937901067
159.17569081829396
159.2003877466585
159.26035691254424
159.39359971578025
159.6752083252752
160.2438264342565
161.33965608613434
163.35183367028424
166.86635280907768
172.69721956163056
181.87685888892537
195.5829078067779
214.99276580802123
241.08377877433708
274.4262512465049
256.19079333115326
222.1904774863178
195.58290299219647
175.7869335369563
161.8066089300252
152.44201821371985
146.49272506286175
142.90620993112742
140.85241707301776
139.73369851109217
139.15307967779864
138.86546291716286
138.72934716156138
138.6680714456559
138.6428314536931
138.6360737916636
138.64283145173007
138.66807144025762
138.72934725140829
138.86546312066812
139.15307917440532
139.73369885170288
140.8524185499894
142.9062095716246
146.4927295485312
152.44201312606097
161.8066134375679
175.78692163426123
195.58290622107836
222.1905108453444
256.19079313596103
243.31545425283113
208.85028963161196
181.8768541445232
161.80662564534555
147.63079693606724
138.13379661531746
132.099319829605
128.4607327469578
126.37667004083889
125.2411990868994
124.65174075384435
124.35967044849826
124.22141082088729
124.15915389374472
124.13350382949322
124.12663536893253
124.13350382749842
124.15915388825913
124.22141091215937
124.35967065517549
124.65174024271633
125.24119943265264
126.37667153972777
128.4607323821466
132.0993243799029
138.13379145518238
147.63080150695495
161.80661357694066
181.87685741796915
208.850323448024
243.3154540550992
234.69331360730095
199.91654342270658
172.69721663201744
152.4420273430174
138.13378876417568
128.54665933294805
122.45386656220484
118.77940490061702
116.67434476271015
115.52716855627062
114.93148710685657
114.63625712798586
114.49646461573413
114.43350081263154
114.40755337854944
114.40060423894838
114.40755337653101
114.4335008070825
114.49646470802838
114.63625733692045
114.93148659026032
115.52716890563049
116.6743462768501
118.77940453212048
122.45387115687313
128.54665412331215
138.13379337806148
152.44201516261026
172.69721993546582
199.91657754612223
234.69331340790706
229.21738485847
194.2424860703634
166.86634786480994
146.49274181113458
132.0993196052375
122.45387431106299
116.32310234665562
112.62510703103939
110.50616425047065
109.35118440521467
108.75131802175497
108.45394423731966
108.31310232602637
108.24965038402553
108.22349603851137
108.21649049563918
108.22349603647645
108.24965037843238
108.31310241902318
108.45394444779117
108.75131750146336
109.35118475698943
110.50616577473008
112.62510666010425
116.32310697031502
122.45386906927502
132.0993242468566
146.49272955884007
166.86635118742996
194.24252038927273
229.2173846580483
225.91735384797062
190.8229018340607
163.35182941405805
142.90622259797553
128.46072832041554
118.77940843599191
112.62510276092561
108.91240712916489
106.78471655944995
105.62477362216286
105.02221969946507
104.72345537878876
104.58192591675201
104.51815101834201
104.49185861028249
104.48481523200273
104.49185860823653
104.51815101271943
104.58192601021102
104.72345559026104
105.02221917678732
105.62477397548092
106.78471809011175
108.91240675669168
112.62510740261409
118.77940317434029
128.46073297903578
142.9062103018506
163.35183274830996
190.82293627112833
225.9173536469482
224.02831869990686
188.86533629191567
161.33965148972567
140.85243126486245
126.3766671260686
116.67434984272784
110.50616151768557
106.78471811318616
104.65177233333803
103.48881750875697
102.8846152426984
102.58498868699482
102.44302815358782
102.37904858713736
102.35266786316663
102.3456001412184
102.35266786111357
102.37904858149611
102.44302824733785
102.58498889909056
102.88461471854829
103.48881786301659
104.65177386786303
106.78471773978812
110.50616617005177
116.67434456939631
126.3766717946022
140.85241894332972
161.3396548306854
188.86537079683495
224.02831849855235
222.9997498892468
187.7993983053739
160.24382119559297
139.7337109305434
125.2411943535499
115.52717180888595
109.35117982282746
105.62477332409372
103.48881564997397
102.32411584990433
101.71894766257938
101.41880985688604
101.2765906584699
101.21248684834248
101.1860519691365
101.17896922602198
101.18605196707925
101.2124868426899
101.27659075239548
101.41881006935301
101.71894713756105
102.32411620471258
103.48881718672352
105.62477295016537
109.35118448122077
115.5271665290117
125.24119902758771
139.733698594991
160.24382454023353
187.79943284736257
222.99974968771812
222.46614114499
187.24637318524265
159.6752034243954
139.15309160845362
124.65173551372449
114.9314898524469
108.75131292336978
105.02221888604431
102.88461286585091
101.7189471451466
101.11323781790152
100.81281000174381
100.67044220441099
100.60626613375332
100.57979941916939
100.57270778721409
100.57979941710951
100.60626612809415
100.67044229843816
100.81281021442248
101.1132372923933
101.71894750026046
102.88461440382409
105.02221851182561
108.75131758500957
114.93148456907657
124.65174019067672
139.1530792655265
159.6752067709612
187.2464077465299
222.46614094337437
222.2019255685659
186.97252846721844
159.393594646922
138.86547538832838
124.35966575194689
114.63626042560105
108.45393969218223
104.72345512271657
102.58498686841097
101.41880989943256
100.81281056251073
100.51222529359784
100.36977574629654
100.30555940794913
100.27907475417754
100.27197807886682
100.27907475211634
100.30555940228622
100.36977584037987
100.51222550639211
100.81281003673816
101.4188102547091
102.58498840702771
104.72345474834593
108.45394435549268
114.63625514044654
124.35967043037247
138.8654630416975
159.39359799444898
186.9725630380957
222.20192536690922
222.07693869456426
186.8429792855564
159.2603518774612
138.7293595560379
124.22140604393209
114.4964678333521
108.31309769897021
104.58192557914317
102.44302625289845
101.27659061916629
100.67044268338383
100.36977566431261
100.22728309672205
100.1630452883072
100.13655096076205
100.12945154683851
100.13655095869993
100.16304528264213
100.2272831908351
100.36977587716727
100.67044215747474
101.27659097452556
102.44302779183846
104.58192520469652
108.31310236310203
114.49646254732748
124.22141072306935
138.72934720762987
159.26035522544677
186.84301386098687
222.0769384928892
222.0206969014486
186.7846813481796
159.20038272563696
138.66808376037955
124.15914903460722
114.43350394772608
108.24964567318455
104.51815059688174
102.37904660216995
101.2124867247873
100.60626652844671
100.3055592415613
100.16304520388621
100.098796543183
100.07229727208946
100.06519644927423
100.07229727002684
100.09879653751679
100.16304529801415
100.30555945444571
100.60626600247072
101.21248708018656
102.37904814126428
104.51815022239902
108.24965033770025
114.43349866129803
124.15915371407131
138.66807141116078
159.2003860738307
186.7847159256661
222.02069669976558
221.99753922603998
186.76067589158987
159.17568580527455
138.64284378049854
124.13349898214788
114.40755652581676
108.22349133967154
104.49185820103594
102.3526658903818
101.1860518578689
100.57979982619317
100.2790746000954
100.13655088865572
100.07229728441237
100.0457957402
100.03869426586157
100.04579573813726
100.07229727874567
100.1365509827902
100.27907481299313
100.5797993001873
101.18605221328566
102.35266742954308
104.49185782653757
108.22349600435064
114.4075512392184
124.13350366174895
138.64283143094173
159.1756891535544
186.76071046992567
221.99753902435398
221.99134057010045
186.75425011182608
159.16907437327825
138.63608612800678
124.12663053115018
114.40060739595766
108.21648580654754
104.48481483259808
102.34559817828992
101.1789691246539
100.57270820415754
100.27197793470233
100.12945148465502
100.06519647152376
100.0386942757887
100.03159261406793
100.03869427372591
100.0651964658569
100.12945157879126
100.27197814760379
100.57270767814353
101.17896948007535
102.34559971746951
104.48481445809523
108.21649047127117
114.40060210931297
124.12663521078836
138.63607377835876
159.16907772158132
186.75428469038962
221.9913403684135
221.99753923037764
186.76067589608618
159.17568580990041
138.64284378522615
124.13349898695223
114.40755653067683
108.22349134457052
104.49185820596077
102.35266589532328
101.18605186282053
100.57979983115064
100.27907460505622
100.13655089361836
100.07229728937591
100.04579574516407
100.03869427082574
100.04579574310125
100.07229728370933
100.13655098775286
100.27907481795388
100.5797993051449
101.18605221823712
102.35266743448437
104.49185783146226
108.22349600924952
114.40755124407858
124.13350366655335
138.64283143566934
159.17568915818026
186.76071047442198
221.99753902869142
222.02069691228368
186.7846813594111
159.200382737191
138.66808377218595
124.15914904660353
114.4335039598596
108.24964568541291
104.51815060917318
102.37904661450128
101.21248673714307
100.60626654081672
100.3055592539392
100.16304521626836
100.09879655556725
100.07229728447462
100.06519646165974
100.07229728241204
100.09879654990108
100.1630453103963
100.30555946682361
100.6062660148406
101.21248709254223
102.37904815359539
104.51815023469025
108.24965034992856
114.43349867343156
124.15915372606759
138.66807142296707
159.20038608538454
186.78471593689753
222.02069671060073
222.07693871897746
186.84297931086124
159.2603519034887
138.72935958262843
124.22140607094367
114.4964678606654
108.31309772649074
104.58192560679989
102.44302628064086
101.27659064696032
100.67044271120766
100.36977569215287
100.22728312457097
100.16304531616042
100.13655098861716
100.1294515746941
100.13655098655492
100.16304531049525
100.22728321868402
100.36977590500734
100.67044218529853
101.27659100231936
102.44302781958065
104.58192523235307
108.31310239062249
114.49646257464073
124.22141075008092
138.72934723422037
159.26035525147415
186.8430138862916
222.07693851730232
222.20192562635145
186.9725285271112
159.39359470851582
138.86547545124088
124.35966581583898
114.6362604901902
108.45393975724556
104.72345518808847
102.58498693397507
101.41880996511108
100.81281062825424
100.51222535937693
100.36977581209412
100.30555947375593
100.2790748199882
100.27197814467861
100.27907481792685
100.30555946809285
100.3697759061773
100.51222557217113
100.81281010248173
101.41881032038744
102.58498847259159
104.72345481371768
108.45394442055586
114.63625520503552
124.35967049426452
138.86546310461003
159.39359805604292
186.9725630979886
222.20192542469505
222.4661414786161
187.2463735310163
159.67520377994094
139.15309197153726
124.65173588237553
114.93149022503015
108.75131329860756
105.02221926299411
102.8846132438557
101.71894752377267
101.11323819687746
100.81281038090832
100.67044258367272
100.60626651306258
100.57979979849965
100.57270816655006
100.57979979643964
100.60626650740329
100.67044267769991
100.81281059358706
101.11323767136928
101.71894787888644
102.88461478182879
105.02221888877527
108.75131796024733
114.93148494165979
124.65174055932765
139.1530796286101
159.67520712650668
187.2464080923035
222.46614127700053
222.9997497034025
187.79939811276972
160.24382099756548
139.7337107283467
125.24119414828712
115.52717160146874
109.35117961396433
105.62477311430456
103.48881543961815
102.32411563921742
101.71894745170763
101.41880964591532
101.27659044744863
101.21248663729669
101.18605175808008
101.1789690149625
101.18605175602272
101.21248663164421
101.27659054137442
101.4188098583824
101.71894692668923
102.32411599402568
103.48881697636776
105.62477274037613
109.35118427235764
115.52716632159438
125.24119882232503
139.73369839279425
160.24382434220587
187.79943265475836
222.99974950187377
224.0283198826411
188.86533751758577
161.33965274967042
140.85243255098231
126.37666843128171
116.67435116122935
110.50616284500633
106.78471944608764
104.65177366960799
103.48881884696705
102.8846165819757
102.58499002683362
102.44302949370864
102.3790499273928
102.35266920348057
102.34560148154858
102.35266920142759
102.37904992175179
102.44302958745884
102.5849902389294
102.88461605782577
103.48881920122663
104.6517752041329
106.78471907268971
110.50616749737235
116.67434588789773
126.37667309981526
140.85242022944965
161.33965609062986
188.8653720225049
224.02831968128646
225.91735320079795
190.82290116341886
163.35182872473112
142.90622189442942
128.46072760654252
118.77940771496895
112.62510203518555
108.91240640046001
106.78471582896874
105.62477289066643
105.02221896741474
104.72345464644972
104.58192518426904
104.51815028579081
104.49185787770217
104.48481449941426
104.49185787565625
104.51815028016846
104.5819252777281
104.72345485792198
105.02221844473712
105.62477324398448
106.7847173596304
108.91240602798678
112.62510667687408
118.77940245331725
128.46073226516268
142.90620959830432
163.35183205898312
190.82293560048632
225.9173529997753
229.2173897280599
194.24249111624906
166.86635305044365
146.49274710251476
132.09932497287951
122.45387973106928
116.32310780088207
112.62511250655106
110.50616973859043
109.35118990045304
108.75132352082852
108.45394973836709
108.3131078280446
108.24965588649744
108.22350154117646
108.21649599835703
108.22350153914151
108.24965588090443
108.31310792104146
108.45394994883858
108.75132300053681
109.35119025222775
110.50617126284979
112.6251121356158
116.32311242454125
122.45387448928126
132.09932961449846
146.49273485022047
166.86635637306338
194.242525435158
229.2173895276378
234.69331551084107
199.91654539506203
172.69721865871892
152.44202941064185
138.13379086113466
128.54666144990634
122.45386869212695
118.77940703853075
116.67434690531222
115.52717070149244
114.93148925347502
114.63625927531544
114.49646676340932
114.43350296046683
114.4075555264523
114.40060638686961
114.40755552443383
114.43350295491786
114.49646685570384
114.63625948424985
114.93148873687865
115.52717105085227
116.6743484194518
118.77940667003405
122.453873286795
128.54665624027024
138.13379547502043
152.44201723023454
172.69722196216748
199.91657951847745
234.6933153114468
243.31544848441484
208.8502836548139
181.87684800347196
161.8066193809235
147.63079058348708
138.13379020285876
132.0993133784986
128.46072627214133
126.37666355218583
125.24119259055736
124.65173425342788
124.35966394601996
124.22140431741221
124.15914738981151
124.13349732536793
124.12662886475509
124.13349732337292
124.15914738432598
124.2214044086843
124.3596641526973
124.65173374229984
125.24119293631044
126.37666505107458
128.46072590732982
132.09931792879638
138.13378504272342
147.63079515437462
161.80660731251845
181.87685127691776
208.85031747122602
243.31544828668288
256.1908020310658
222.1904865001916
195.58291225289145
175.78694298239574
161.80661850691288
152.44202787943757
146.492734785583
142.90621968859747
140.85242685062715
139.73370829981172
139.15308947236133
138.86547271465943
138.7293569604654
138.66808124520193
138.6428412535066
138.63608359154932
138.64284125154376
138.66808123980377
138.7293570503123
138.86547291816453
139.15308896896786
139.7337086404224
140.85242832759857
142.90621932909468
146.4927392712521
152.44202279177821
161.80662301445523
175.7869310797006
195.58291548177306
222.19051985921746
256.1908018358731
274.4262437944207
241.083738142599
214.99275450645717
195.58291117963566
181.8768460585887
172.6972160597568
166.8663398751921
163.3518254547653
161.3396460542539
160.24381750623502
159.67520021884488
159.39359091471562
159.26034822159767
159.20037914840256
159.17568221645473
159.16907077519136
159.17568221453425
159.20037914312022
159.26034830953998
159.3935911139528
159.6751997259159
160.24381783984123
161.3396475011736
163.3518251025552
166.86634427123423
172.69721107304736
181.87685047743682
195.58289950980355
214.99275767250577
241.08377085508994
274.42624360289204
298.94081705034426
266.482024525767
241.08380357082368
222.19055217686608
208.8503493980237
199.91661111586427
194.24254693700206
190.82296685895236
188.86540001670116
187.79946380301448
187.24643919204993
186.97259398108238
186.8430448827865
186.78474702597205
186.76074155982263
186.75431577150863
186.76074155795632
186.78474702083767
186.84304496828545
186.97259417481513
187.24643871267787
187.79946412749663
188.8654014242654
190.82296651630767
194.24255121458646
199.91660626304838
208.8503536987343
222.1905408181048
241.08380665270917
266.4820563704636
298.94081686381526
330.2707390753871
298.9407583917779
274.4262466897317
256.1908039754316
243.31544965072803
234.69331609027813
229.2173803935088
225.917353178548
224.02831665111952
222.9997494830319
222.46614119457033
222.20192512489976
222.07693832296678
222.02069660379567
221.99753891760508
221.99134025299932
221.9975389158047
222.02069659884253
222.07693840545278
222.20192531181613
222.46614073204248
222.99974979613043
224.02831800937835
225.9173528479005
229.217384521645
234.69331140683826
243.31545380151275
256.19079301231943
274.4262496643513
298.940789128743
330.2707388953173
