# vtk DataFile Version 2.0
Unstructured Grid Example
ASCII
DATASET UNSTRUCTURED_GRID

POINTS 961 float
0.100000001 0.00499999989 0
0.0966666639 0.00499999989 0
0.0933333337 0.00499999989 0
0.0900000036 0.00499999989 0
0.086666666 0.00499999989 0
0.0833333358 0.00499999989 0
0.0799999982 0.00499999989 0
0.0766666681 0.00499999989 0
0.0733333305 0.00499999989 0
0.0700000003 0.00499999989 0
0.0666666701 0.00499999989 0
0.0633333325 0.00499999989 0
0.0599999987 0.00499999989 0
0.0566666685 0.00499999989 0
0.0533333346 0.00499999989 0
0.0500000007 0.00499999989 0
0.0466666669 0.00499999989 0
0.043333333 0.00499999989 0
0.0399999991 0.00499999989 0
0.0366666652 0.00499999989 0
0.0333333351 0.00499999989 0
0.0299999993 0.00499999989 0
0.0266666673 0.00499999989 0
0.0233333334 0.00499999989 0
0.0199999996 0.00499999989 0
0.0166666675 0.00499999989 0
0.0133333337 0.00499999989 0
0.00999999978 0.00499999989 0
0.00666666683 0.00499999989 0
0.00333333341 0.00499999989 0
0.0 0.00499999989 0
0.100000001 0.00166666671 0
0.0966666639 0.00166666671 0
0.0933333337 0.00166666671 0
0.0900000036 0.00166666671 0
0.086666666 0.00166666671 0
0.0833333358 0.00166666671 0
0.0799999982 0.00166666671 0
0.0766666681 0.00166666671 0
0.0733333305 0.00166666671 0
0.0700000003 0.00166666671 0
0.0666666701 0.00166666671 0
0.0633333325 0.00166666671 0
0.0599999987 0.00166666671 0
0.0566666685 0.00166666671 0
0.0533333346 0.00166666671 0
0.0500000007 0.00166666671 0
0.0466666669 0.00166666671 0
0.043333333 0.00166666671 0
0.0399999991 0.00166666671 0
0.0366666652 0.00166666671 0
0.0333333351 0.00166666671 0
0.0299999993 0.00166666671 0
0.0266666673 0.00166666671 0
0.0233333334 0.00166666671 0
0.0199999996 0.00166666671 0
0.0166666675 0.00166666671 0
0.0133333337 0.00166666671 0
0.00999999978 0.00166666671 0
0.00666666683 0.00166666671 0
0.00333333341 0.00166666671 0
0.0 0.00166666671 0
0.100000001 -0.00166666671 0
0.0966666639 -0.00166666671 0
0.0933333337 -0.00166666671 0
0.0900000036 -0.00166666671 0
0.086666666 -0.00166666671 0
0.0833333358 -0.00166666671 0
0.0799999982 -0.00166666671 0
0.0766666681 -0.00166666671 0
0.0733333305 -0.00166666671 0
0.0700000003 -0.00166666671 0
0.0666666701 -0.00166666671 0
0.0633333325 -0.00166666671 0
0.0599999987 -0.00166666671 0
0.0566666685 -0.00166666671 0
0.0533333346 -0.00166666671 0
0.0500000007 -0.00166666671 0
0.0466666669 -0.00166666671 0
0.043333333 -0.00166666671 0
0.0399999991 -0.00166666671 0
0.0366666652 -0.00166666671 0
0.0333333351 -0.00166666671 0
0.0299999993 -0.00166666671 0
0.0266666673 -0.00166666671 0
0.0233333334 -0.00166666671 0
0.0199999996 -0.00166666671 0
0.0166666675 -0.00166666671 0
0.0133333337 -0.00166666671 0
0.00999999978 -0.00166666671 0
0.00666666683 -0.00166666671 0
0.00333333341 -0.00166666671 0
0.0 -0.00166666671 0
0.100000001 -0.00499999989 0
0.0966666639 -0.00499999989 0
0.0933333337 -0.00499999989 0
0.0900000036 -0.00499999989 0
0.086666666 -0.00499999989 0
0.0833333358 -0.00499999989 0
0.0799999982 -0.00499999989 0
0.0766666681 -0.00499999989 0
0.0733333305 -0.00499999989 0
0.0700000003 -0.00499999989 0
0.0666666701 -0.00499999989 0
0.0633333325 -0.00499999989 0
0.0599999987 -0.00499999989 0
0.0566666685 -0.00499999989 0
0.0533333346 -0.00499999989 0
0.0500000007 -0.00499999989 0
0.0466666669 -0.00499999989 0
0.043333333 -0.00499999989 0
0.0399999991 -0.00499999989 0
0.0366666652 -0.00499999989 0
0.0333333351 -0.00499999989 0
0.0299999993 -0.00499999989 0
0.0266666673 -0.00499999989 0
0.0233333334 -0.00499999989 0
0.0199999996 -0.00499999989 0
0.0166666675 -0.00499999989 0
0.0133333337 -0.00499999989 0
0.00999999978 -0.00499999989 0
0.00666666683 -0.00499999989 0
0.00333333341 -0.00499999989 0
0.0 -0.00499999989 0
0.100000001 -0.00833333377 0
0.0966666639 -0.00833333377 0
0.0933333337 -0.00833333377 0
0.0900000036 -0.00833333377 0
0.086666666 -0.00833333377 0
0.0833333358 -0.00833333377 0
0.0799999982 -0.00833333377 0
0.0766666681 -0.00833333377 0
0.0733333305 -0.00833333377 0
0.0700000003 -0.00833333377 0
0.0666666701 -0.00833333377 0
0.0633333325 -0.00833333377 0
0.0599999987 -0.00833333377 0
0.0566666685 -0.00833333377 0
0.0533333346 -0.00833333377 0
0.0500000007 -0.00833333377 0
0.0466666669 -0.00833333377 0
0.043333333 -0.00833333377 0
0.0399999991 -0.00833333377 0
0.0366666652 -0.00833333377 0
0.0333333351 -0.00833333377 0
0.0299999993 -0.00833333377 0
0.0266666673 -0.00833333377 0
0.0233333334 -0.00833333377 0
0.0199999996 -0.00833333377 0
0.0166666675 -0.00833333377 0
0.0133333337 -0.00833333377 0
0.00999999978 -0.00833333377 0
0.00666666683 -0.00833333377 0
0.00333333341 -0.00833333377 0
0.0 -0.00833333377 0
0.100000001 -0.0116666667 0
0.0966666639 -0.0116666667 0
0.0933333337 -0.0116666667 0
0.0900000036 -0.0116666667 0
0.086666666 -0.0116666667 0
0.0833333358 -0.0116666667 0
0.0799999982 -0.0116666667 0
0.0766666681 -0.0116666667 0
0.0733333305 -0.0116666667 0
0.0700000003 -0.0116666667 0
0.0666666701 -0.0116666667 0
0.0633333325 -0.0116666667 0
0.0599999987 -0.0116666667 0
0.0566666685 -0.0116666667 0
0.0533333346 -0.0116666667 0
0.0500000007 -0.0116666667 0
0.0466666669 -0.0116666667 0
0.043333333 -0.0116666667 0
0.0399999991 -0.0116666667 0
0.0366666652 -0.0116666667 0
0.0333333351 -0.0116666667 0
0.0299999993 -0.0116666667 0
0.0266666673 -0.0116666667 0
0.0233333334 -0.0116666667 0
0.0199999996 -0.0116666667 0
0.0166666675 -0.0116666667 0
0.0133333337 -0.0116666667 0
0.00999999978 -0.0116666667 0
0.00666666683 -0.0116666667 0
0.00333333341 -0.0116666667 0
0.0 -0.0116666667 0
0.100000001 -0.0149999997 0
0.0966666639 -0.0149999997 0
0.0933333337 -0.0149999997 0
0.0900000036 -0.0149999997 0
0.086666666 -0.0149999997 0
0.0833333358 -0.0149999997 0
0.0799999982 -0.0149999997 0
0.0766666681 -0.0149999997 0
0.0733333305 -0.0149999997 0
0.0700000003 -0.0149999997 0
0.0666666701 -0.0149999997 0
0.0633333325 -0.0149999997 0
0.0599999987 -0.0149999997 0
0.0566666685 -0.0149999997 0
0.0533333346 -0.0149999997 0
0.0500000007 -0.0149999997 0
0.0466666669 -0.0149999997 0
0.043333333 -0.0149999997 0
0.0399999991 -0.0149999997 0
0.0366666652 -0.0149999997 0
0.0333333351 -0.0149999997 0
0.0299999993 -0.0149999997 0
0.0266666673 -0.0149999997 0
0.0233333334 -0.0149999997 0
0.0199999996 -0.0149999997 0
0.0166666675 -0.0149999997 0
0.0133333337 -0.0149999997 0
0.00999999978 -0.0149999997 0
0.00666666683 -0.0149999997 0
0.00333333341 -0.0149999997 0
0.0 -0.0149999997 0
0.100000001 -0.0183333326 0
0.0966666639 -0.0183333326 0
0.0933333337 -0.0183333326 0
0.0900000036 -0.0183333326 0
0.086666666 -0.0183333326 0
0.0833333358 -0.0183333326 0
0.0799999982 -0.0183333326 0
0.0766666681 -0.0183333326 0
0.0733333305 -0.0183333326 0
0.0700000003 -0.0183333326 0
0.0666666701 -0.0183333326 0
0.0633333325 -0.0183333326 0
0.0599999987 -0.0183333326 0
0.0566666685 -0.0183333326 0
0.0533333346 -0.0183333326 0
0.0500000007 -0.0183333326 0
0.0466666669 -0.0183333326 0
0.043333333 -0.0183333326 0
0.0399999991 -0.0183333326 0
0.0366666652 -0.0183333326 0
0.0333333351 -0.0183333326 0
0.0299999993 -0.0183333326 0
0.0266666673 -0.0183333326 0
0.0233333334 -0.0183333326 0
0.0199999996 -0.0183333326 0
0.0166666675 -0.0183333326 0
0.0133333337 -0.0183333326 0
0.00999999978 -0.0183333326 0
0.00666666683 -0.0183333326 0
0.00333333341 -0.0183333326 0
0.0 -0.0183333326 0
0.100000001 -0.0216666665 0
0.0966666639 -0.0216666665 0
0.0933333337 -0.0216666665 0
0.0900000036 -0.0216666665 0
0.086666666 -0.0216666665 0
0.0833333358 -0.0216666665 0
0.0799999982 -0.0216666665 0
0.0766666681 -0.0216666665 0
0.0733333305 -0.0216666665 0
0.0700000003 -0.0216666665 0
0.0666666701 -0.0216666665 0
0.0633333325 -0.0216666665 0
0.0599999987 -0.0216666665 0
0.0566666685 -0.0216666665 0
0.0533333346 -0.0216666665 0
0.0500000007 -0.0216666665 0
0.0466666669 -0.0216666665 0
0.043333333 -0.0216666665 0
0.0399999991 -0.0216666665 0
0.0366666652 -0.0216666665 0
0.0333333351 -0.0216666665 0
0.0299999993 -0.0216666665 0
0.0266666673 -0.0216666665 0
0.0233333334 -0.0216666665 0
0.0199999996 -0.0216666665 0
0.0166666675 -0.0216666665 0
0.0133333337 -0.0216666665 0
0.00999999978 -0.0216666665 0
0.00666666683 -0.0216666665 0
0.00333333341 -0.0216666665 0
0.0 -0.0216666665 0
0.100000001 -0.0250000004 0
0.0966666639 -0.0250000004 0
0.0933333337 -0.0250000004 0
0.0900000036 -0.0250000004 0
0.086666666 -0.0250000004 0
0.0833333358 -0.0250000004 0
0.0799999982 -0.0250000004 0
0.0766666681 -0.0250000004 0
0.0733333305 -0.0250000004 0
0.0700000003 -0.0250000004 0
0.0666666701 -0.0250000004 0
0.0633333325 -0.0250000004 0
0.0599999987 -0.0250000004 0
0.0566666685 -0.0250000004 0
0.0533333346 -0.0250000004 0
0.0500000007 -0.0250000004 0
0.0466666669 -0.0250000004 0
0.043333333 -0.0250000004 0
0.0399999991 -0.0250000004 0
0.0366666652 -0.0250000004 0
0.0333333351 -0.0250000004 0
0.0299999993 -0.0250000004 0
0.0266666673 -0.0250000004 0
0.0233333334 -0.0250000004 0
0.0199999996 -0.0250000004 0
0.0166666675 -0.0250000004 0
0.0133333337 -0.0250000004 0
0.00999999978 -0.0250000004 0
0.00666666683 -0.0250000004 0
0.00333333341 -0.0250000004 0
0.0 -0.0250000004 0
0.100000001 -0.0283333343 0
0.0966666639 -0.0283333343 0
0.0933333337 -0.0283333343 0
0.0900000036 -0.0283333343 0
0.086666666 -0.0283333343 0
0.0833333358 -0.0283333343 0
0.0799999982 -0.0283333343 0
0.0766666681 -0.0283333343 0
0.0733333305 -0.0283333343 0
0.0700000003 -0.0283333343 0
0.0666666701 -0.0283333343 0
0.0633333325 -0.0283333343 0
0.0599999987 -0.0283333343 0
0.0566666685 -0.0283333343 0
0.0533333346 -0.0283333343 0
0.0500000007 -0.0283333343 0
0.0466666669 -0.0283333343 0
0.043333333 -0.0283333343 0
0.0399999991 -0.0283333343 0
0.0366666652 -0.0283333343 0
0.0333333351 -0.0283333343 0
0.0299999993 -0.0283333343 0
0.0266666673 -0.0283333343 0
0.0233333334 -0.0283333343 0
0.0199999996 -0.0283333343 0
0.0166666675 -0.0283333343 0
0.0133333337 -0.0283333343 0
0.00999999978 -0.0283333343 0
0.00666666683 -0.0283333343 0
0.00333333341 -0.0283333343 0
0.0 -0.0283333343 0
[...]
POINT_DATA 961
SCALARS Temp float 1
LOOKUP_TABLE default
276.70109786331915
244.8375832414208
222.63696538892916
208.5286996743926
200.3519092301439
196.01762081840238
193.90609815589127
192.95493661748907
192.55611830593975
192.39942395890066
192.34136456215788
192.3209562727255
192.3141150033276
192.3119208127451
192.31125732409583
192.31111296732928
192.3112573240527
192.31192081258982
192.31411500726807
192.32095628542882
192.34136451984722
192.39942399952577
192.55611855741324
192.9549365518207
193.90609955858625
196.01761881377382
200.35191161114741
208.52869206470646
222.6369679124568
244.83761279118124
276.7010975536382
244.83761497108404
211.87366980274209
188.9047775601736
174.30693440728905
165.84544148164477
161.35966399698043
159.17403844680965
158.18935539173947
157.77642227732605
157.61415935098935
157.55402843130324
157.53288922310225
157.52580205576223
157.52352873395762
157.52284124561373
157.52269165648806
157.52284124556903
157.52352873379672
157.5258020598445
157.53288923626107
157.5540283874803
157.61415939306073
157.7764225377136
158.18935532374527
159.1740398988199
161.35966192211367
165.84544394568798
174.30692653302347
188.90478017111505
211.87370037399532
244.8376146507308
222.6369694875428
188.9047482065431
165.39645476611352
150.45226090350147
141.7874854598227
137.19240761650187
134.95271702587615
133.94329570001398
133.51982698840973
133.35336130147962
133.29165028537864
133.26994792657584
133.26266950558568
133.26033409474925
133.25962762821936
133.2594738795337
133.25962762817326
133.26033409458378
133.26266950977856
133.26994794008692
133.29165024039668
133.35336134464805
133.51982725547973
133.94329563028018
134.95271851404254
137.19240549061405
141.7874879834274
150.45225284106016
165.39645743859296
188.90477949284224
222.63696915978747
208.52869242313798
174.30689281874788
150.4522488158024
135.28337002283152
126.48506410516087
121.81716954296523
119.54091263596251
118.5144987386819
118.08368088400529
117.91423934183726
117.85139338393672
117.82928102464605
117.82186158774849
117.81947985708821
117.81875908500096
117.81860217882563
117.81875908495402
117.81947985691937
117.82186159202332
117.82928103841468
117.85139333811713
117.91423938578738
118.08368115576376
118.51449866773122
119.5409141487453
121.81716738277254
126.4850666681306
135.28336183743662
150.45225152794038
174.30692456233734
208.5286920907202
200.35191204915517
165.845410027109
141.7874840046931
126.48507500977392
117.6061913696361
112.8935870089664
110.59445489693951
109.55720385220698
109.12160784539121
108.95019479805262
108.88658327485187
108.86418959997725
108.8566718497155
108.85425734492841
108.85352631808554
108.8533671285446
108.85352631803784
108.85425734475729
108.85667185404778
108.86418961392359
108.88658322846263
108.95019484252501
109.12160812022027
109.55720378046229
110.59445642524972
112.8935848274681
117.60619395654018
126.48506675066582
141.7874867402134
165.84544203779149
200.35191171407533
196.01761999232545
161.3596286167959
137.1924022768747
121.8171765614848
112.8935830311044
108.15567207179771
105.84330910054247
104.79964707073641
104.36115946660752
104.18852637481655
104.12443077716961
104.101855545546
104.09427311274277
104.09183665698374
104.09109865311277
104.09093789355649
104.09109865306453
104.09183665681087
104.09427311711309
104.101855559608
104.12443073041655
104.18852641961524
104.36115974331113
104.79964699850885
105.84331063792142
108.15566987807905
112.8935856314044
121.81716826178041
137.19240502503297
161.35966077030696
196.0176196558674
193.90609991328867
159.17400566547073
134.9527144165728
119.54092245963304
110.59445372461637
105.843311933386
103.52386518496601
102.47668359872404
102.03656743156085
101.86322953196358
101.79884729541345
101.77616198444633
101.76853944748143
101.76608909565097
101.76534659324707
101.76518480889685
101.76534659319857
101.76608909547701
101.76853945187553
101.77616199857881
101.79884724844246
101.86322957695299
102.03656770933073
102.47668352622317
103.52386672725329
105.8433097331841
110.59445633183505
119.54091413932638
134.95271717101883
159.17403788922357
193.90609957618048
192.9549370656602
158.189321220905
133.94329169711466
118.51450715980232
109.55720124978686
104.79964847036499
102.4766821565855
101.42770442198803
100.9867338233656
100.81301570935818
100.74847455233657
100.72572657441066
100.71808062397906
100.71562196582657
100.71487671788468
100.71471429932924
100.71487671783602
100.71562196565213
100.7180806283872
100.7257265885837
100.7484745052431
100.8130157544518
100.98673410170103
101.42770434934256
102.4766837013398
104.79964626697269
109.55720386031554
118.514498829818
133.94329445445499
158.18935347660928
192.95493672827087
192.55611896524667
157.776388310641
133.51982320785368
118.08368953757349
109.12160547234222
104.36116109965735
102.03656622177571
100.98673405730746
100.5453450483325
100.37143516170649
100.30681145415214
100.28402997421323
100.27637115579068
100.2739078119489
100.27316097906944
100.27299818873337
100.27316097902067
100.27390781177407
100.27637116020662
100.28402998840832
100.30681140699424
100.37143520685342
100.54534532694828
100.98673398459078
102.03656776768554
104.36115889480321
109.12160808434474
118.08368120335881
133.51982596643455
157.77642057987356
192.55611862774504
192.39942431113917
157.6141250606054
133.35335719402394
117.91424766525684
108.95019208874552
104.1885276703295
101.86322798246181
100.81301560336262
100.37143482130436
100.19743431280224
100.13277037493886
100.10997206240167
100.10230658407824
100.09984074584364
100.09909304785486
100.0989300511886
100.09909304780615
100.09984074566867
100.10230658849827
100.10997207660796
100.13277032774917
100.19743435797479
100.3714351000502
100.81301553061294
101.86322952887767
104.18852546484895
108.950194701362
117.9142393293115
133.35335995310285
157.61415733520445
192.39942397359587
192.3413648689512
157.55399409170388
133.29164612931754
117.85140165880568
108.88658051547492
104.12443202262813
101.79884569526938
100.74847439576374
100.30681106305151
100.13277032427654
100.06808795444772
100.04528168212019
100.03761295498752
100.03514586311674
100.03439771862301
100.03423461357256
100.03439771857425
100.03514586294172
100.03761295940959
100.04528169633176
100.0680879072432
100.13277036946057
100.30681134185399
100.74847432299998
101.79884724189351
104.12442981689519
108.88658312833212
117.85139332219373
133.29164888858494
157.55402636830968
192.34136453139345
192.32095662149163
157.5328549262156
133.26994381503522
117.82928934521415
108.86418688653445
104.10185683745368
101.77616043083245
100.72572646456695
100.28402962988476
100.10997205857252
100.04528172897534
100.02247190707803
100.0148016841242
100.01233399691444
100.01158563442364
100.01142247548022
100.01158563437494
100.01233399673927
100.01480168854724
100.02247192129201
100.0452816817643
100.10997210376159
100.28402990871066
100.72572639179741
101.77616197753767
104.10185463162475
108.86418949948086
117.82928100835926
133.26994657437015
157.5328872035329
192.32095628392898
192.31411534592402
157.525767752228
133.26266538744838
117.8218699017151
108.85666912946995
104.09427439784632
101.76853788697998
100.71808050725657
100.27637080456445
100.10230657335745
100.03761299495137
100.01480167722903
100.00713080330573
100.00466284873646
100.00391438554237
100.00375120123648
100.00391438549352
100.00466284856121
100.00713080772925
100.01480169144405
100.03761294773747
100.10230661854831
100.27637108339937
100.71808043448485
101.7685394337149
104.0942721919827
108.85667174244772
117.82186156477599
133.26266814680645
157.5258000297859
192.31411500835995
192.31192115200147
157.52349442688003
133.26032997304588
117.81948816745816
108.85425462099852
104.0918379383884
101.76608753141255
100.71562184536467
100.27390745697308
100.09984073137363
100.03514589933086
100.01233398626762
100.00466284498454
100.00219477716176
100.00144627010819
100.00128307455356
100.00144627005919
100.00219477698658
100.00466284940808
100.01233400048288
100.03514585211575
100.09984077656533
100.27390773581142
100.71562177259204
101.7660890781579
104.0918357325127
108.85425723398681
117.81947983049115
133.2603327324115
157.52352670451566
192.31192081443697
192.31125766373066
157.5228069389031
133.2596235069154
117.81876739579053
108.85352359456871
104.09109993494013
101.76534502942822
100.71487659784694
100.27316062451733
100.09909303381046
100.03439775526331
100.01158562420281
100.00391438221659
100.00144627053419
100.00069774606717
100.00053454597402
100.00069774601835
100.00144627035894
100.00391438664012
100.01158563841814
100.03439770804778
100.09909307900242
100.2731609033567
100.71487652507396
101.76534657617691
104.09109772906069
108.85352620756035
117.81875905881473
133.25962626628316
157.52283921656223
192.31125732616607
192.31111330717098
157.5226573499861
133.25946975844937
117.81861048984197
108.85336440525512
104.0909391756148
101.765183245309
100.71471417952425
100.2729978344142
100.09893003737784
100.03423465044666
100.01142246549306
100.00375119814444
100.0012830752135
100.00053454620785
100.00037134491947
100.00053454615909
100.00128307503819
100.00375120256814
100.01142247970844
100.03423460323116
100.09893008256974
100.27299811325375
100.71471410675113
101.7651847920585
104.09093696973441
108.85336701824747
117.81860215286419
133.25947251781764
157.52268962765052
192.3111129696063
192.311257663851
157.52280693902773
133.25962350704356
117.81876739592126
108.85352359470137
104.09109993507403
101.76534502956306
100.71487659798224
100.27316062465303
100.09909303394629
100.03439775539914
100.01158562433864
100.00391438235238
100.0014462706701
100.00069774620316
100.00053454610996
100.00069774615433
100.00144627049491
100.00391438677602
100.01158563855407
100.03439770818373
100.0990930791381
100.27316090349227
100.71487652520916
101.76534657631171
104.09109772919457
108.85352620769298
117.81875905894562
133.25962626641137
157.52283921668712
192.3112573262865
192.31192115238403
157.52349442727657
133.2603299734533
117.8194881678736
108.85425462141968
104.0918379388136
101.76608753184024
100.71562184579393
100.27390745740323
100.09984073180422
100.03514589976163
100.0123339866984
100.00466284541548
100.00219477759268
100.001446270539
100.0012830749844
100.00144627049009
100.00219477741746
100.00466284983902
100.0123340009138
100.03514585254646
100.0998407769958
100.27390773624136
100.71562177302117
101.7660890785855
104.09183573293798
108.85425723440808
117.81947983090663
133.26033273281877
157.52352670491211
192.31192081481967
192.31411534712572
157.5257677534729
133.26266538872716
117.82186990301874
108.85666913079105
104.09427439917899
101.76853788831993
100.71808050860085
100.27637080591111
100.10230657470528
100.03761299629974
100.01480167857781
100.00713080465468
100.00466285008532
100.00391438689117
100.00375120258525
100.00391438684227
100.0046628499101
100.00713080907808
100.01480169279267
100.03761294908591
100.10230661989604
100.2763710847458
100.71808043582892
101.76853943505475
104.09427219331535
108.85667174376884
117.82186156607955
133.262668148085
157.52580003103077
192.3141150095616
192.32095662548758
157.53285493035506
133.26994381928532
117.82928934954535
108.86418689092133
104.10185684187695
101.77616043527796
100.72572646902513
100.28402963434982
100.10997206304101
100.04528173344548
100.0224719115489
100.01480168859548
100.01233400138575
100.01158563889494
100.0114224799514
100.01158563884613
100.01233400121055
100.01480169301834
100.0224719257628
100.04528168623436
100.10997210822995
100.2840299131755
100.72572639625541
101.77616198198291
104.10185463604792
108.86418950386769
117.82928101269034
133.26994657862022
157.5328872076722
192.32095628792516
192.34136490060143
157.55399412448511
133.29164616296472
117.851401693078
108.88658055017183
104.12443205759563
101.7988457303987
100.74847443098376
100.30681109831916
100.13277035956763
100.06808798974978
100.04528171742707
100.0376129902963
100.03514589842628
100.03439775393272
100.03423464888225
100.03439775388391
100.03514589825105
100.03761299471836
100.04528173163861
100.06808794254516
100.13277040475171
100.30681137712148
100.74847435821982
101.79884727702282
104.12442985186271
108.88658316302896
117.85139335646605
133.29164892223199
157.55402640109082
192.34136456304364
192.39942428896012
157.61412503763597
133.35335717045385
117.91424764125736
108.95019206445804
104.18852764586119
101.86322795788709
100.81301557872962
100.3714347966412
100.19743428812461
100.13277035025467
100.10997203771464
100.10230655939
100.09984072115485
100.09909302316602
100.09893002649964
100.09909302311718
100.09984072097996
100.10230656381009
100.1099720519208
100.13277030306485
100.19743433329708
100.37143507538704
100.8130155059799
101.8632295043029
104.18852544038054
108.95019467707444
117.91423930531205
133.35335992953284
157.61415731223502
192.39942395141688
192.55611918185232
157.77638853492599
133.51982343789726
118.08368977165948
109.12160570907764
104.36116133801131
102.0365664610513
100.98673429707245
100.5453452883403
100.37143540182709
100.30681169432194
100.28403021440319
100.27637139598848
100.27390805214966
100.27316121927116
100.27299842893525
100.27316121922239
100.27390805197493
100.27637140040453
100.2840302285983
100.30681164716398
100.37143544697398
100.54534556695599
100.98673422435579
102.03656800696105
104.3611591331571
109.12160832107999
118.0836814374448
133.51982619647816
157.77642080415856
192.55611884435066
192.95493691751892
158.18932106752698
133.9432915398399
118.51450699982115
109.55720108805505
104.79964830757991
102.47668199321106
101.42770425830658
100.98673365953482
100.81301554545952
100.74847438840874
100.7257264104711
100.71808046003501
100.71562180188096
100.71487655393861
100.71471413538309
100.71487655389001
100.71562180170662
100.71808046444319
100.72572642464422
100.74847434131541
100.8130155905531
100.98673393787027
101.42770418566101
102.47668353796533
104.79964610418756
109.55720369858354
118.51449866983677
133.9432942971804
158.1893533232311
192.9549365801294
193.90610155814147
159.17400736815625
134.9527161616668
119.54092423360774
110.59445551681469
105.84331373623185
103.52386699357749
102.47668541023518
102.03656924443055
101.86323134542879
101.79884910912395
101.77616379825207
101.76854126132226
101.76609090950417
101.76534840710436
101.76518662275502
101.7653484070559
101.76609090933037
101.76854126571641
101.7761638123846
101.79884906215297
101.86323139041816
102.03656952220032
102.47668533773403
103.52386853586447
105.84331153602983
110.59445812403332
119.54091591330103
134.95271891611253
159.174039591909
193.90610122103303
196.01762089757497
161.35962955370871
137.19240323667887
121.81717753658128
112.89358401562224
108.15567306166943
105.84331009322561
104.79964806478826
104.36116046127977
104.18852736975175
104.12443177220962
104.10185654062592
104.09427410783653
104.0918376520824
104.091099648213
104.09093888865706
104.09109964816494
104.09183765190973
104.09427411220697
104.1018565546876
104.12443172545657
104.18852741455032
104.36116073798306
104.79964799256042
105.8433116306042
108.1556708679506
112.89358661592229
121.8171692368769
137.19240598483728
161.3596617072197
196.01762056111684
200.35190885017204
165.8454067164961
141.78748061389
126.48507156586139
117.60618789334848
112.89358351450454
110.59445139306035
109.55720034380721
109.12160433497142
108.95019128678848
108.88657976325555
108.8641860882574
108.85666833795204
108.8542538331502
108.85352280630269
108.85336361676072
108.85352280625504
108.8542538329792
108.85666834228424
108.86418610220369
108.88657971686618
108.95019133126058
109.12160460980016
109.55720027206209
110.59445292137028
112.8935813330061
117.60619048025248
126.48506330675322
141.78748334941014
165.84543872717865
200.3519085150923
208.52869854883642
174.3068991573553
150.45225530569243
135.28337661144533
126.48507075287445
121.81717622317521
119.54091933263787
118.51450544307968
118.08368759177418
117.91424605098331
117.85140009361271
117.82928773451495
117.82186829768433
117.81948656704616
117.81876579496576
117.81860888879197
117.81876579491883
117.8194865668773
117.82186830195913
117.82928774828349
117.85140004779305
117.91424609493329
118.08368786353225
118.5145053721288
119.54092084542023
121.81717406298209
126.48507331584383
135.2833684260503
150.4522580178303
174.30693090094437
208.5286982164184
222.63696313695434
188.90474163581393
165.3964480401043
150.45225407716515
141.78747857416153
137.19240069867914
134.95271009200727
133.94328875873958
133.51982004395515
133.35335435574618
133.29164333916066
133.2699409801843
133.26266255913455
133.26032714827892
133.2596206817429
133.2594669330559
133.25962068169682
133.26032714811336
133.26266256332755
133.2699409936952
133.2916432941788
133.3533543989145
133.5198203110249
133.94328868900567
134.9527115801734
137.1923985727909
141.78748109776592
150.45224601472347
165.39645071258346
188.90477292211298
222.6369628091989
244.8376397124865
211.87369539941974
188.90480375554097
174.3069609855283
165.84546828350307
161.35969091841196
159.17406542704083
158.18938239871403
157.77644929562234
157.61418637377602
157.55405545576897
157.53291624816313
157.52582908102443
157.5235557592849
157.52286827096054
157.5227186818391
157.52286827091595
157.5235557591238
157.52582908510664
157.532916261322
157.554055411946
157.6141864158474
157.77644955600994
158.1893823307196
159.1740668790508
161.35968884354503
165.84547074754613
174.30695311126257
188.90480636648215
211.87372597067193
244.83763939213316
276.70109766898327
244.83758304041623
222.63696518335487
208.52869946598375
200.35190902014523
196.01762060759475
193.9060979447085
192.95493640614635
192.5561180945338
192.39942374747153
192.34136435072074
192.3209560612857
192.314114791887
192.31192060130437
192.31125711265494
192.31111275588827
192.31125711261166
192.31192060114893
192.31411479582732
192.32095607398895
192.34136430841008
192.39942378809664
192.5561183460072
192.95493634047773
193.90609934740317
196.01761860296608
200.35191140114853
208.52869185629748
222.63696770688222
244.83761259017655
276.70109735930197
