# vtk DataFile Version 2.0
Unstructured Grid Example
ASCII
DATASET UNSTRUCTURED_GRID

POINTS 961 float
0.100000001 0.00499999989 0
0.0966666639 0.00499999989 0
0.0933333337 0.00499999989 0
0.0900000036 0.00499999989 0
0.086666666 0.00499999989 0
0.0833333358 0.00499999989 0
0.0799999982 0.00499999989 0
0.0766666681 0.00499999989 0
0.0733333305 0.00499999989 0
0.0700000003 0.00499999989 0
0.0666666701 0.00499999989 0
0.0633333325 0.00499999989 0
0.0599999987 0.00499999989 0
0.0566666685 0.00499999989 0
0.0533333346 0.00499999989 0
0.0500000007 0.00499999989 0
0.0466666669 0.00499999989 0
0.043333333 0.00499999989 0
0.0399999991 0.00499999989 0
0.0366666652 0.00499999989 0
0.0333333351 0.00499999989 0
0.0299999993 0.00499999989 0
0.0266666673 0.00499999989 0
0.0233333334 0.00499999989 0
0.0199999996 0.00499999989 0
0.0166666675 0.00499999989 0
0.0133333337 0.00499999989 0
0.00999999978 0.00499999989 0
0.00666666683 0.00499999989 0
0.00333333341 0.00499999989 0
0.0 0.00499999989 0
0.100000001 0.00166666671 0
0.0966666639 0.00166666671 0
0.0933333337 0.00166666671 0
0.0900000036 0.00166666671 0
0.086666666 0.00166666671 0
0.0833333358 0.00166666671 0
0.0799999982 0.00166666671 0
0.0766666681 0.00166666671 0
0.0733333305 0.00166666671 0
0.0700000003 0.00166666671 0
0.0666666701 0.00166666671 0
0.0633333325 0.00166666671 0
0.0599999987 0.00166666671 0
0.0566666685 0.00166666671 0
0.0533333346 0.00166666671 0
0.0500000007 0.00166666671 0
0.0466666669 0.00166666671 0
0.043333333 0.00166666671 0
0.0399999991 0.00166666671 0
0.0366666652 0.00166666671 0
0.0333333351 0.00166666671 0
0.0299999993 0.00166666671 0
0.0266666673 0.00166666671 0
0.0233333334 0.00166666671 0
0.0199999996 0.00166666671 0
0.0166666675 0.00166666671 0
0.0133333337 0.00166666671 0
0.00999999978 0.00166666671 0
0.00666666683 0.00166666671 0
0.00333333341 0.00166666671 0
0.0 0.00166666671 0
0.100000001 -0.00166666671 0
0.0966666639 -0.00166666671 0
0.0933333337 -0.00166666671 0
0.0900000036 -0.00166666671 0
0.086666666 -0.00166666671 0
0.0833333358 -0.00166666671 0
0.0799999982 -0.00166666671 0
0.0766666681 -0.00166666671 0
0.0733333305 -0.00166666671 0
0.0700000003 -0.00166666671 0
0.0666666701 -0.00166666671 0
0.0633333325 -0.00166666671 0
0.0599999987 -0.00166666671 0
0.0566666685 -0.00166666671 0
0.0533333346 -0.00166666671 0
0.0500000007 -0.00166666671 0
0.0466666669 -0.00166666671 0
0.043333333 -0.00166666671 0
0.0399999991 -0.00166666671 0
0.0366666652 -0.00166666671 0
0.0333333351 -0.00166666671 0
0.0299999993 -0.00166666671 0
0.0266666673 -0.00166666671 0
0.0233333334 -0.00166666671 0
0.0199999996 -0.00166666671 0
0.0166666675 -0.00166666671 0
0.0133333337 -0.00166666671 0
0.00999999978 -0.00166666671 0
0.00666666683 -0.00166666671 0
0.00333333341 -0.00166666671 0
0.0 -0.00166666671 0
0.100000001 -0.00499999989 0
0.0966666639 -0.00499999989 0
0.0933333337 -0.00499999989 0
0.0900000036 -0.00499999989 0
0.086666666 -0.00499999989 0
0.0833333358 -0.00499999989 0
0.0799999982 -0.00499999989 0
0.0766666681 -0.00499999989 0
0.0733333305 -0.00499999989 0
0.0700000003 -0.00499999989 0
0.0666666701 -0.00499999989 0
0.0633333325 -0.00499999989 0
0.0599999987 -0.00499999989 0
0.0566666685 -0.00499999989 0
0.0533333346 -0.00499999989 0
0.0500000007 -0.00499999989 0
0.0466666669 -0.00499999989 0
0.043333333 -0.00499999989 0
0.0399999991 -0.00499999989 0
0.0366666652 -0.00499999989 0
0.0333333351 -0.00499999989 0
0.0299999993 -0.00499999989 0
0.0266666673 -0.00499999989 0
0.0233333334 -0.00499999989 0
0.0199999996 -0.00499999989 0
0.0166666675 -0.00499999989 0
0.0133333337 -0.00499999989 0
0.00999999978 -0.00499999989 0
0.00666666683 -0.00499999989 0
0.00333333341 -0.00499999989 0
0.0 -0.00499999989 0
0.100000001 -0.00833333377 0
0.0966666639 -0.00833333377 0
0.0933333337 -0.00833333377 0
0.0900000036 -0.00833333377 0
0.086666666 -0.00833333377 0
0.0833333358 -0.00833333377 0
0.0799999982 -0.00833333377 0
0.0766666681 -0.00833333377 0
0.0733333305 -0.00833333377 0
0.0700000003 -0.00833333377 0
0.0666666701 -0.00833333377 0
0.0633333325 -0.00833333377 0
0.0599999987 -0.00833333377 0
0.0566666685 -0.00833333377 0
0.0533333346 -0.00833333377 0
0.0500000007 -0.00833333377 0
0.0466666669 -0.00833333377 0
0.043333333 -0.00833333377 0
0.0399999991 -0.00833333377 0
0.0366666652 -0.00833333377 0
0.0333333351 -0.00833333377 0
0.0299999993 -0.00833333377 0
0.0266666673 -0.00833333377 0
0.0233333334 -0.00833333377 0
0.0199999996 -0.00833333377 0
0.0166666675 -0.00833333377 0
0.0133333337 -0.00833333377 0
0.00999999978 -0.00833333377 0
0.00666666683 -0.00833333377 0
0.00333333341 -0.00833333377 0
0.0 -0.00833333377 0
0.100000001 -0.0116666667 0
0.0966666639 -0.0116666667 0
0.0933333337 -0.0116666667 0
0.0900000036 -0.0116666667 0
0.086666666 -0.0116666667 0
0.0833333358 -0.0116666667 0
0.0799999982 -0.0116666667 0
0.0766666681 -0.0116666667 0
0.0733333305 -0.0116666667 0
0.0700000003 -0.0116666667 0
0.0666666701 -0.0116666667 0
0.0633333325 -0.0116666667 0
0.0599999987 -0.0116666667 0
0.0566666685 -0.0116666667 0
0.0533333346 -0.0116666667 0
0.0500000007 -0.0116666667 0
0.0466666669 -0.0116666667 0
0.043333333 -0.0116666667 0
0.0399999991 -0.0116666667 0
0.0366666652 -0.0116666667 0
0.0333333351 -0.0116666667 0
0.0299999993 -0.0116666667 0
0.0266666673 -0.0116666667 0
0.0233333334 -0.0116666667 0
0.0199999996 -0.0116666667 0
0.0166666675 -0.0116666667 0
0.0133333337 -0.0116666667 0
0.00999999978 -0.0116666667 0
0.00666666683 -0.0116666667 0
0.00333333341 -0.0116666667 0
0.0 -0.0116666667 0
0.100000001 -0.0149999997 0
0.0966666639 -0.0149999997 0
0.0933333337 -0.0149999997 0
0.0900000036 -0.0149999997 0
0.086666666 -0.0149999997 0
0.0833333358 -0.0149999997 0
0.0799999982 -0.0149999997 0
0.0766666681 -0.0149999997 0
0.0733333305 -0.0149999997 0
0.0700000003 -0.0149999997 0
0.0666666701 -0.0149999997 0
0.0633333325 -0.0149999997 0
0.0599999987 -0.0149999997 0
0.0566666685 -0.0149999997 0
0.0533333346 -0.0149999997 0
0.0500000007 -0.0149999997 0
0.0466666669 -0.0149999997 0
0.043333333 -0.0149999997 0
0.0399999991 -0.0149999997 0
0.0366666652 -0.0149999997 0
0.0333333351 -0.0149999997 0
0.0299999993 -0.0149999997 0
0.0266666673 -0.0149999997 0
0.0233333334 -0.0149999997 0
0.0199999996 -0.0149999997 0
0.0166666675 -0.0149999997 0
0.0133333337 -0.0149999997 0
0.00999999978 -0.0149999997 0
0.00666666683 -0.0149999997 0
0.00333333341 -0.0149999997 0
0.0 -0.0149999997 0
0.100000001 -0.0183333326 0
0.0966666639 -0.0183333326 0
0.0933333337 -0.0183333326 0
0.0900000036 -0.0183333326 0
0.086666666 -0.0183333326 0
0.0833333358 -0.0183333326 0
0.0799999982 -0.0183333326 0
0.0766666681 -0.0183333326 0
0.0733333305 -0.0183333326 0
0.0700000003 -0.0183333326 0
0.0666666701 -0.0183333326 0
0.0633333325 -0.0183333326 0
0.0599999987 -0.0183333326 0
0.0566666685 -0.0183333326 0
0.0533333346 -0.0183333326 0
0.0500000007 -0.0183333326 0
0.0466666669 -0.0183333326 0
0.043333333 -0.0183333326 0
0.0399999991 -0.0183333326 0
0.0366666652 -0.0183333326 0
0.0333333351 -0.0183333326 0
0.0299999993 -0.0183333326 0
0.0266666673 -0.0183333326 0
0.0233333334 -0.0183333326 0
0.0199999996 -0.0183333326 0
0.0166666675 -0.0183333326 0
0.0133333337 -0.0183333326 0
0.00999999978 -0.0183333326 0
0.00666666683 -0.0183333326 0
0.00333333341 -0.0183333326 0
0.0 -0.0183333326 0
0.100000001 -0.0216666665 0
0.0966666639 -0.0216666665 0
0.0933333337 -0.0216666665 0
0.0900000036 -0.0216666665 0
0.086666666 -0.0216666665 0
0.0833333358 -0.0216666665 0
0.0799999982 -0.0216666665 0
0.0766666681 -0.0216666665 0
0.0733333305 -0.0216666665 0
0.0700000003 -0.0216666665 0
0.0666666701 -0.0216666665 0
0.0633333325 -0.0216666665 0
0.0599999987 -0.0216666665 0
0.0566666685 -0.0216666665 0
0.0533333346 -0.0216666665 0
0.0500000007 -0.0216666665 0
0.0466666669 -0.0216666665 0
0.043333333 -0.0216666665 0
0.0399999991 -0.0216666665 0
0.0366666652 -0.0216666665 0
0.0333333351 -0.0216666665 0
0.0299999993 -0.0216666665 0
0.0266666673 -0.0216666665 0
0.0233333334 -0.0216666665 0
0.0199999996 -0.0216666665 0
0.0166666675 -0.0216666665 0
0.0133333337 -0.0216666665 0
0.00999999978 -0.0216666665 0
0.00666666683 -0.0216666665 0
0.00333333341 -0.0216666665 0
0.0 -0.0216666665 0
0.100000001 -0.0250000004 0
0.0966666639 -0.0250000004 0
0.0933333337 -0.0250000004 0
0.0900000036 -0.0250000004 0
0.086666666 -0.0250000004 0
0.0833333358 -0.0250000004 0
0.0799999982 -0.0250000004 0
0.0766666681 -0.0250000004 0
0.0733333305 -0.0250000004 0
0.0700000003 -0.0250000004 0
0.0666666701 -0.0250000004 0
0.0633333325 -0.0250000004 0
0.0599999987 -0.0250000004 0
0.0566666685 -0.0250000004 0
0.0533333346 -0.0250000004 0
0.0500000007 -0.0250000004 0
0.0466666669 -0.0250000004 0
0.043333333 -0.0250000004 0
0.0399999991 -0.0250000004 0
0.0366666652 -0.0250000004 0
0.0333333351 -0.0250000004 0
0.0299999993 -0.0250000004 0
0.0266666673 -0.0250000004 0
0.0233333334 -0.0250000004 0
0.0199999996 -0.0250000004 0
0.0166666675 -0.0250000004 0
0.0133333337 -0.0250000004 0
0.00999999978 -0.0250000004 0
0.00666666683 -0.0250000004 0
0.00333333341 -0.0250000004 0
0.0 -0.0250000004 0
0.100000001 -0.0283333343 0
0.0966666639 -0.0283333343 0
0.0933333337 -0.0283333343 0
0.0900000036 -0.0283333343 0
0.086666666 -0.0283333343 0
0.0833333358 -0.0283333343 0
0.0799999982 -0.0283333343 0
0.0766666681 -0.0283333343 0
0.0733333305 -0.0283333343 0
0.0700000003 -0.0283333343 0
0.0666666701 -0.0283333343 0
0.0633333325 -0.0283333343 0
0.0599999987 -0.0283333343 0
0.0566666685 -0.0283333343 0
0.0533333346 -0.0283333343 0
0.0500000007 -0.0283333343 0
0.0466666669 -0.0283333343 0
0.043333333 -0.0283333343 0
0.0399999991 -0.0283333343 0
0.0366666652 -0.0283333343 0
0.0333333351 -0.0283333343 0
0.0299999993 -0.0283333343 0
0.0266666673 -0.0283333343 0
0.0233333334 -0.0283333343 0
0.0199999996 -0.0283333343 0
0.0166666675 -0.0283333343 0
0.0133333337 -0.0283333343 0
0.00999999978 -0.0283333343 0
0.00666666683 -0.0283333343 0
0.00333333341 -0.0283333343 0
0.0 -0.0283333343 0
[...]
POINT_DATA 961
SCALARS Temp float 1
LOOKUP_TABLE default
238.60706480588067
207.15513775945033
188.36188058347852
178.69534009176488
174.36399787188446
172.643504656536
172.02625176046757
171.8227911326457
171.76027306960918
171.7421529818902
171.7371519794206
171.735827707907
171.7354892233479
171.73540534882395
171.73538533181244
171.73538165500116
171.73538533181124
171.73540534881872
171.73548922352558
171.735827708657
171.73715197619
171.74215298603988
171.76027310485188
171.8227911225064
172.02625212152967
172.64350398763918
174.3639989875699
178.69533559259307
188.3618825739307
207.15516500563442
238.6070646238897
207.1551669002293
174.6718073693094
155.25795011241104
145.26929421972233
140.79216385856228
139.01317492061423
138.37473562465559
138.16423078329402
138.0995313595495
138.08077464383078
138.0755968511045
138.0742255069848
138.07387493112884
138.07378804713358
138.07376730908638
138.07376349946378
138.07376730908518
138.07378804712823
138.07387493131287
138.0742255077615
138.07559684775958
138.08077464812652
138.09953139602493
138.16423077280132
138.3747359981529
139.01317422886308
140.79216501195984
145.2692895697797
155.2579521687957
174.67183551164143
207.15516671175376
188.36188370719734
155.2579226575635
135.4631420523896
125.27157393252668
120.69992697296215
118.8819087934954
118.22894779478652
118.01349574951563
117.9472308862006
117.92800850856321
117.9226992106689
117.92129232714396
117.92093250105891
117.92084328744978
117.92082198547689
117.92081807122383
117.92082198547556
117.92084328744427
117.92093250124782
117.92129232794098
117.92269920723825
117.9280085129667
117.94723092356685
118.01349573877025
118.22894817689
118.88190808627891
120.69992815110865
125.27156918605068
135.46314414960165
155.2579513437044
188.36188351399883
178.69533579011375
145.26925878541755
125.2715660671689
114.96814103281527
110.34233348921396
108.50105167120272
107.83910531168257
107.62048644587368
107.55318883645755
107.53365100016036
107.52825051809599
107.52681848253914
107.52645199051085
107.52636107104806
107.52633935036398
107.52633535766287
107.52633935036265
107.52636107104229
107.52645199070334
107.52681848335052
107.52825051460556
107.53365100463742
107.55318887441716
107.62048643496219
107.8391056991839
108.50105095458115
110.3423346817826
114.96813623192944
125.27156818638063
145.26928775699366
178.69533559401967
174.36399922411263
140.79213412737448
120.69992505647049
110.3423395497741
105.68909655158083
103.83545747207391
103.1685119944247
102.94805393502817
102.8801329421345
102.86039807787161
102.85493890924624
102.85349025303827
102.85311925251807
102.85302715538056
102.8530051404519
102.85300109193608
102.85300514045058
102.85302715537479
102.85311925271284
102.85349025385932
102.85493890571674
102.86039808239514
102.88013298045652
102.94805392401665
103.16851238498165
103.83545675032697
105.68909775160536
110.34233472184332
120.69992718606137
140.79216322977547
174.36399902655793
172.64350445809978
139.0131435290562
118.88190523192058
108.50105608456838
103.83545579865049
101.97595450989289
101.30650955392802
101.08508454452844
101.01682032084095
100.99697238534979
100.99147827753849
100.9900194001968
100.98964554664695
100.98955268520066
100.98953047509936
100.98952638899759
100.98953047509805
100.9895526851948
100.98964554684319
100.99001940102362
100.99147827398559
100.99697238990035
101.01682035936571
101.0850845334617
101.30650994604478
101.97595378564068
103.83545700210925
108.50105124469361
118.8819073658527
139.0131726846281
172.64350425993032
172.02625230632484
138.37470498197553
118.22894501785792
107.83911052767283
103.16851112343736
101.30651036149952
100.63593899608382
100.41405357992669
100.34561718254393
100.32570974861227
100.3201964474388
100.31873173595758
100.31835619761839
100.31826287104424
100.31824053904593
100.3182364290452
100.3182405390445
100.31826287103829
100.31835619781556
100.3187317367878
100.32019644387273
100.32570975317743
100.3456172211722
100.41405356883229
100.63593938891972
101.3065096361438
103.16851232831736
107.839105683058
118.2289471534252
138.37473415704383
172.02625210793298
171.82279133532813
138.1641997785825
118.01349260851617
107.62049129523045
102.94805269225675
101.08508497965967
100.41405320625127
100.19196860443043
100.12345344462419
100.10351731935751
100.09799430344437
100.09652650692739
100.09615004209283
100.09605645066343
100.09603404713215
100.09602992281367
100.09603404713083
100.09605645065744
100.09615004229047
100.09652650775948
100.09799429987144
100.10351732392984
100.12345348330076
100.19196859332315
100.41405359938801
101.08508425386265
102.94805389767103
107.62048644890295
118.01349474464683
138.16422896020734
171.82279113686485
171.76027329397422
138.0995003750842
117.94722776792509
107.55319370976795
102.88013172280414
101.01682077984562
100.3456168326094
100.12345346851102
100.05490534154303
100.03495652101935
100.02942897504902
100.02795966869068
100.02758273007649
100.02748899776638
100.02746655486406
100.02746242247898
100.02746655486268
100.02748899776036
100.02758273027436
100.02795966952377
100.02942897147307
100.0349565255948
100.05490538024019
100.12345345739837
100.34561722586146
101.01682005388685
102.88013292840307
107.5531888628695
117.94722990423585
138.09952955876028
171.76027309548994
171.74215316295516
138.08074361390308
117.92800534429216
107.53365582700549
102.86039681139209
100.99697279705074
100.32570935117403
100.10351729571943
100.034956473462
100.01500248178908
100.00947298689074
100.00800299651091
100.00762583274434
100.00753203051063
100.00750956731292
100.00750543066059
100.00750956731159
100.00753203050476
100.00762583294244
100.0080029973445
100.00947298331332
100.01500248636589
100.03495651216728
100.10351728460452
100.32570974446674
100.99697207103704
102.86039801705049
107.53365097992928
117.92800748065721
138.0807727981833
171.74215296446528
171.73715215668724
138.07556581706282
117.9226960423405
107.5282553408897
102.85493763859971
100.99147868507464
100.32019604579739
100.09799427560793
100.02942892328744
100.0094729826885
100.0039427117846
100.00247243410055
100.00209517085916
100.00200133625387
100.00197886326596
100.001974724497
100.00197886326465
100.002001336248
100.0020951710573
100.00247243493433
100.00394270820661
100.00947298726591
100.02942896199563
100.09799426449237
100.32019643910344
100.99147795904364
102.85493884427613
107.52825049376122
117.92269817872103
138.0755950015123
171.73715195819582
171.73582788821972
138.07419447604892
117.92128916204442
107.5268233086393
102.8534889857154
100.99001981108744
100.3187313376758
100.0965264824612
100.02795962030149
100.00800299568375
100.00247243747648
100.00100204758103
100.0006247434172
100.00053089482613
100.00050841742032
100.00050427766736
100.00050841741894
100.0005308948202
100.00062474361543
100.00100204841479
100.00247243389826
100.00800300026137
100.02795965901082
100.09652647134534
100.31873173098614
100.99001908505117
102.85349019139692
107.52681846149618
117.92129129842897
138.07422366054357
171.73582768972813
171.7354894032551
138.0738438997604
117.92092933552671
107.52645681617619
102.85311798474986
100.9896459570916
100.31835579888664
100.09615001717688
100.02758268123665
100.00762583146681
100.00209517378464
100.00062474296678
100.00024742308614
100.00015356884877
100.00013108957737
100.00012694939605
100.000131089576
100.00015356884292
100.00024742328439
100.00062474380063
100.00209517020633
100.00762583604444
100.02758271994627
100.09615000606104
100.3183561921981
100.98964523105379
102.85311919043286
107.5264519690291
117.92093147191241
138.0738730842669
171.7354892047634
171.73540552858546
138.0737570156112
117.92084012176225
107.52636589655658
102.8530258874523
100.98955309548451
100.3182624721504
100.09605642558516
100.0274889487639
100.00753202907042
100.00200133901676
100.00053089421294
100.00015356868619
100.00005971231826
100.0000372323107
100.00003309195522
100.00003723230937
100.00005971231239
100.00015356888436
100.0005308950468
100.00200133543838
100.00753203364816
100.0274889874737
100.09605641446922
100.31826286546209
100.98955236944619
102.85302709313547
107.52636104940848
117.92084225814816
138.07378620012057
171.73540533009384
171.73538551158762
138.0737362775774
117.9208188198039
107.52634417588762
102.85300387253858
100.98953088539847
100.31824014016725
100.09603402206932
100.02746650587699
100.00750956588804
100.0019788660443
100.00050841682251
100.00013108943014
100.00003723232602
100.00001475205343
100.00001061163339
100.00001475205214
100.00003723232012
100.00013108962818
100.00050841765623
100.00197886246575
100.0075095704657
100.02746654458677
100.09603401095329
100.31824053347916
100.98953015936011
102.85300507822197
107.5263393287392
117.92082095618979
138.07376546208752
171.73538531309592
171.73538183478192
138.07373246796018
117.92081490555657
107.52634018319264
102.85299982402867
100.98952679930278
100.31823603017271
100.09602989775706
100.02746237349814
100.00750542924216
100.00197472728146
100.0005042770758
100.00012694925502
100.00003309197676
100.00001061163961
100.00000647120366
100.0000106116384
100.0000330919708
100.00012694945308
100.00050427790946
100.00197472370301
100.00750543381966
100.02746241220787
100.09602988664106
100.31823642348466
100.98952607326436
102.85300102971209
107.52633533604408
117.92081704194253
138.07376165247038
171.7353816362901
171.73538551159123
138.073736277581
117.92081881980751
107.52634417589134
102.85300387254235
100.98953088540226
100.31824014017118
100.09603402207321
100.02746650588095
100.00750956589205
100.00197886604828
100.0005084168264
100.000131089434
100.00003723232994
100.00001475205738
100.00001061163734
100.000014752056
100.00003723232409
100.00013108963208
100.00050841766013
100.00197886246974
100.00750957046955
100.02746654459064
100.09603401095727
100.31824053348305
100.98953015936395
102.85300507822572
107.526339328743
117.92082095619347
138.0737654620911
171.7353853130994
171.7354055285991
138.0737570156253
117.92084012177669
107.52636589657124
102.85302588746711
100.98955309549956
100.31826247216544
100.09605642560031
100.02748894877915
100.00753202908572
100.00200133903206
100.00053089422818
100.0001535687014
100.00005971233348
100.00003723232591
100.0000330919703
100.00003723232452
100.00005971232754
100.00015356889956
100.00053089506198
100.00200133545353
100.00753203366321
100.02748898748877
100.09605641448432
100.3182628654773
100.98955236946122
102.8530270931504
107.52636104942314
117.92084225816258
138.07378620013463
171.73540533010734
171.7354894033099
138.07384389981718
117.92092933558511
107.52645681623554
102.85311798480998
100.9896459571521
100.31835579894751
100.09615001723786
100.02758268129784
100.00762583152807
100.00209517384592
100.00062474302804
100.00024742314747
100.00015356891002
100.00013108963856
100.00012694945724
100.00013108963711
100.0001535689041
100.00024742334563
100.00062474386179
100.00209517026757
100.0076258361056
100.02758272000732
100.09615000612189
100.31835619225896
100.98964523111431
102.85311919049289
107.52645196908847
117.9209314719706
138.07387308432362
171.7354892048182
171.73582788845746
138.0741944762951
117.92128916229697
107.5268233088965
102.85348898597564
100.9900198113496
100.31873133793911
100.09652648272505
100.02795962056562
100.00800299594819
100.00247243774089
100.0010020478455
100.00062474368168
100.00053089509053
100.00050841768459
100.00050427793167
100.00050841768316
100.00053089508462
100.0006247438798
100.00100204867921
100.00247243416257
100.0080030005257
100.02795965927488
100.09652647160915
100.31873173124924
100.99001908531325
102.85349019165714
107.52681846175324
117.92129129868155
138.07422366078976
171.73582768996584
171.7371521591452
138.07556581960802
117.92269604495077
107.52825534354541
102.85493764128493
100.99147868777767
100.32019604851028
100.09799427832601
100.02942892600791
100.00947298541017
100.00394271450674
100.00247243682288
100.00209517358154
100.00200133897619
100.00197886598825
100.00197472721918
100.00197886598689
100.00200133897012
100.00209517377962
100.00247243765648
100.00394271092864
100.00947298998743
100.02942896471619
100.09799426721041
100.32019644181638
100.99147796174657
102.85493884696126
107.52825049641677
117.9226981813311
138.07559500405733
171.73715196065376
171.7421531607956
138.0807436116675
117.92800534200042
107.53365582467524
102.86039680903733
100.99697279468175
100.3257093487973
100.10351729333901
100.03495647107988
100.01500247940623
100.00947298450762
100.00800299412775
100.00762583036104
100.0075320281273
100.00750956492952
100.00750542827726
100.00750956492813
100.00753202812139
100.00762583055912
100.00800299496119
100.00947298093011
100.0150024839831
100.03495650978519
100.1035172822241
100.32570974209004
100.99697206866801
102.8603980146958
107.53365097759898
117.92800747836534
138.0807727959476
171.74215296230565
171.76027332407764
138.0995004062409
117.94722779984292
107.5531937421932
102.88013175553968
101.01682081275476
100.34561686560738
100.1234535015505
100.05490537460028
100.03495655408356
100.02942900811584
100.0279597017584
100.02758276314438
100.02748903083433
100.02746658793211
100.027462455547
100.02746658793076
100.02748903082845
100.02758276334231
100.0279597025914
100.02942900453982
100.03495655865905
100.05490541329739
100.12345349043775
100.34561725885932
101.01682008679593
102.88013296113856
107.55318889529467
117.94722993615378
138.0995295899169
171.7602731255934
171.82279130943672
138.16419975179082
118.01349258108439
107.62049126738182
102.9480526641603
101.08508495142918
100.4140531779547
100.19196857610406
100.12345341628568
100.10351729101441
100.09799427509937
100.0965264785819
100.09615001374716
100.09605642231777
100.09603401878657
100.09602989446812
100.09603401878519
100.09605642231172
100.09615001394482
100.09652647941397
100.09799427152663
100.10351729558668
100.12345345496215
100.19196856499684
100.41405357109139
101.08508422563209
102.94805386957457
107.62048642105434
118.01349471721511
138.1642289334156
171.82279111097333
172.02625272816707
138.374705418347
118.22894546428641
107.83911098041096
103.16851157974904
101.30651081963602
100.63593945506234
100.41405403925793
100.34561764201027
100.32571020812632
100.32019690696856
100.31873219549213
100.3183566571543
100.31826333058062
100.31824099858243
100.3182368885818
100.31824099858103
100.3182633305747
100.31835665735143
100.31873219632234
100.32019690340243
100.32571021269136
100.34561768063836
100.41405402816335
100.635939847898
101.30651009428021
103.16851278462894
107.83910613579626
118.22894759985364
138.3747345934152
172.02625252977495
172.64350479624065
139.01314387872014
118.8819055893227
108.5010564466233
103.83545616320204
101.97595487564168
101.3065099201926
101.08508491099435
101.01682068737898
100.99697275191167
100.99147864410774
100.99001976676828
100.98964591321894
100.9895530517729
100.98953084167167
100.98952675556983
100.98953084167029
100.9895530517671
100.98964591341526
100.99001976759494
100.99147864055472
100.99697275646223
101.01682072590354
101.0850848999275
101.3065103123091
101.9759541513894
103.83545736666082
108.50105160674838
118.8819077232548
139.01317303429204
172.64350459807102
174.36399777885882
140.7921326332215
120.69992353013602
110.34233800460767
105.68909499662482
103.83545591257895
103.16851043303765
102.94805237292462
102.88013137978137
102.86039651543763
102.85493734678762
102.8534886905726
102.85311769005038
102.85302559291233
102.85300357798357
102.8529995294677
102.85300357798226
102.85302559290659
102.85311769024509
102.85348869139354
102.85493734325809
102.86039651996104
102.88013141810326
102.94805236191272
103.16851082359452
103.83545519083191
105.68909619664922
110.34233317667677
120.69992565972676
140.79216173562244
174.36399758130426
178.69533952355133
145.26926264381692
125.27157000530056
114.96814501567133
110.3423374941738
108.50105568586586
107.839109330175
107.62049046574319
107.55319285678448
107.53365502062914
107.52825453860643
107.52682250306118
107.52645601103603
107.52636509157388
107.52634337089003
107.52633937818905
107.52634337088872
107.52636509156821
107.52645601122833
107.52682250387242
107.5282545351157
107.53365502510596
107.55319289474365
107.62049045483136
107.83910971767598
108.50105496924398
110.34233868674215
114.9681402147854
125.27157212451206
145.2692916153929
178.69533932745728
188.36187903730473
155.25791783247115
135.46313713027106
125.2715689574583
120.69992197255483
118.8819037823419
118.22894277953661
118.01349073284085
117.94722586906697
117.92800349129078
117.9226941933569
117.92128730982124
117.92092748373324
117.92083827012348
117.92081696815038
117.92081305389716
117.9208169681491
117.92083827011787
117.92092748392217
117.92128731061801
117.9226941899261
117.92800349569421
117.94722590643299
118.01349072209514
118.22894316163975
118.881903075125
120.69992315070103
125.27156421098205
135.46313922748303
155.25794651861216
188.36187884410634
207.15518966303185
174.67183088095393
155.25797407873273
145.26931842485237
140.7921881732084
139.01319927978668
138.37476000015664
138.16425516428578
138.0995557422588
138.08079902704574
138.07562123446124
138.0742498903793
138.07389931453335
138.07381243054064
138.07379169249373
138.07378788287122
138.0737916924927
138.07381243053507
138.0738993147173
138.07424989115614
138.07562123111617
138.08079903134157
138.0995557787341
138.16425515379296
138.37476037365377
139.0131985880353
140.79218932660598
145.26931377490968
155.25797613511713
174.6718590232852
207.15518947455632
238.60706461066246
207.15513755759395
188.3618803772899
178.6953398831997
174.36399766223846
172.64350444647457
172.02625155026675
171.8227909224022
171.76027285935376
171.74215277163157
171.7371517691611
171.73582749764736
171.73548901308823
171.73540513856423
171.7353851215527
171.73538144474142
171.73538512155147
171.735405138559
171.73548901326592
171.73582749839727
171.73715176593063
171.74215277578116
171.76027289459645
171.82279091226283
172.02625191132856
172.64350377757773
174.3639987779238
178.69533538402766
188.361882367742
207.15516480377806
238.60706442867146
