# vtk DataFile Version 2.0
Unstructured Grid Example
ASCII
DATASET UNSTRUCTURED_GRID

POINTS 961 float
0.100000001 0.00499999989 0
0.0966666639 0.00499999989 0
0.0933333337 0.00499999989 0
0.0900000036 0.00499999989 0
0.086666666 0.00499999989 0
0.0833333358 0.00499999989 0
0.0799999982 0.00499999989 0
0.0766666681 0.00499999989 0
0.0733333305 0.00499999989 0
0.0700000003 0.00499999989 0
0.0666666701 0.00499999989 0
0.0633333325 0.00499999989 0
0.0599999987 0.00499999989 0
0.0566666685 0.00499999989 0
0.0533333346 0.00499999989 0
0.0500000007 0.00499999989 0
0.0466666669 0.00499999989 0
0.043333333 0.00499999989 0
0.0399999991 0.00499999989 0
0.0366666652 0.00499999989 0
0.0333333351 0.00499999989 0
0.0299999993 0.00499999989 0
0.0266666673 0.00499999989 0
0.0233333334 0.00499999989 0
0.0199999996 0.00499999989 0
0.0166666675 0.00499999989 0
0.0133333337 0.00499999989 0
0.00999999978 0.00499999989 0
0.00666666683 0.00499999989 0
0.00333333341 0.00499999989 0
0.0 0.00499999989 0
0.100000001 0.00166666671 0
0.0966666639 0.00166666671 0
0.0933333337 0.00166666671 0
0.0900000036 0.00166666671 0
0.086666666 0.00166666671 0
0.0833333358 0.00166666671 0
0.0799999982 0.00166666671 0
0.0766666681 0.00166666671 0
0.0733333305 0.00166666671 0
0.0700000003 0.00166666671 0
0.0666666701 0.00166666671 0
0.0633333325 0.00166666671 0
0.0599999987 0.00166666671 0
0.0566666685 0.00166666671 0
0.0533333346 0.00166666671 0
0.0500000007 0.00166666671 0
0.0466666669 0.00166666671 0
0.043333333 0.00166666671 0
0.0399999991 0.00166666671 0
0.0366666652 0.00166666671 0
0.0333333351 0.00166666671 0
0.0299999993 0.00166666671 0
0.0266666673 0.00166666671 0
0.0233333334 0.00166666671 0
0.0199999996 0.00166666671 0
0.0166666675 0.00166666671 0
0.0133333337 0.00166666671 0
0.00999999978 0.00166666671 0
0.00666666683 0.00166666671 0
0.00333333341 0.00166666671 0
0.0 0.00166666671 0
0.100000001 -0.00166666671 0
0.0966666639 -0.00166666671 0
0.0933333337 -0.00166666671 0
0.0900000036 -0.00166666671 0
0.086666666 -0.00166666671 0
0.0833333358 -0.00166666671 0
0.0799999982 -0.00166666671 0
0.0766666681 -0.00166666671 0
0.0733333305 -0.00166666671 0
0.0700000003 -0.00166666671 0
0.0666666701 -0.00166666671 0
0.0633333325 -0.00166666671 0
0.0599999987 -0.00166666671 0
0.0566666685 -0.00166666671 0
0.0533333346 -0.00166666671 0
0.0500000007 -0.00166666671 0
0.0466666669 -0.00166666671 0
0.043333333 -0.00166666671 0
0.0399999991 -0.00166666671 0
0.0366666652 -0.00166666671 0
0.0333333351 -0.00166666671 0
0.0299999993 -0.00166666671 0
0.0266666673 -0.00166666671 0
0.0233333334 -0.00166666671 0
0.0199999996 -0.00166666671 0
0.0166666675 -0.00166666671 0
0.0133333337 -0.00166666671 0
0.00999999978 -0.00166666671 0
0.00666666683 -0.00166666671 0
0.00333333341 -0.00166666671 0
0.0 -0.00166666671 0
0.100000001 -0.00499999989 0
0.0966666639 -0.00499999989 0
0.0933333337 -0.00499999989 0
0.0900000036 -0.00499999989 0
0.086666666 -0.00499999989 0
0.0833333358 -0.00499999989 0
0.0799999982 -0.00499999989 0
0.0766666681 -0.00499999989 0
0.0733333305 -0.00499999989 0
0.0700000003 -0.00499999989 0
0.0666666701 -0.00499999989 0
0.0633333325 -0.00499999989 0
0.0599999987 -0.00499999989 0
0.0566666685 -0.00499999989 0
0.0533333346 -0.00499999989 0
0.0500000007 -0.00499999989 0
0.0466666669 -0.00499999989 0
0.043333333 -0.00499999989 0
0.0399999991 -0.00499999989 0
0.0366666652 -0.00499999989 0
0.0333333351 -0.00499999989 0
0.0299999993 -0.00499999989 0
0.0266666673 -0.00499999989 0
0.0233333334 -0.00499999989 0
0.0199999996 -0.00499999989 0
0.0166666675 -0.00499999989 0
0.0133333337 -0.00499999989 0
0.00999999978 -0.00499999989 0
0.00666666683 -0.00499999989 0
0.00333333341 -0.00499999989 0
0.0 -0.00499999989 0
0.100000001 -0.00833333377 0
0.0966666639 -0.00833333377 0
0.0933333337 -0.00833333377 0
0.0900000036 -0.00833333377 0
0.086666666 -0.00833333377 0
0.0833333358 -0.00833333377 0
0.0799999982 -0.00833333377 0
0.0766666681 -0.00833333377 0
0.0733333305 -0.00833333377 0
0.0700000003 -0.00833333377 0
0.0666666701 -0.00833333377 0
0.0633333325 -0.00833333377 0
0.0599999987 -0.00833333377 0
0.0566666685 -0.00833333377 0
0.0533333346 -0.00833333377 0
0.0500000007 -0.00833333377 0
0.0466666669 -0.00833333377 0
0.043333333 -0.00833333377 0
0.0399999991 -0.00833333377 0
0.0366666652 -0.00833333377 0
0.0333333351 -0.00833333377 0
0.0299999993 -0.00833333377 0
0.0266666673 -0.00833333377 0
0.0233333334 -0.00833333377 0
0.0199999996 -0.00833333377 0
0.0166666675 -0.00833333377 0
0.0133333337 -0.00833333377 0
0.00999999978 -0.00833333377 0
0.00666666683 -0.00833333377 0
0.00333333341 -0.00833333377 0
0.0 -0.00833333377 0
0.100000001 -0.0116666667 0
0.0966666639 -0.0116666667 0
0.0933333337 -0.0116666667 0
0.0900000036 -0.0116666667 0
0.086666666 -0.0116666667 0
0.0833333358 -0.0116666667 0
0.0799999982 -0.0116666667 0
0.0766666681 -0.0116666667 0
0.0733333305 -0.0116666667 0
0.0700000003 -0.0116666667 0
0.0666666701 -0.0116666667 0
0.0633333325 -0.0116666667 0
0.0599999987 -0.0116666667 0
0.0566666685 -0.0116666667 0
0.0533333346 -0.0116666667 0
0.0500000007 -0.0116666667 0
0.0466666669 -0.0116666667 0
0.043333333 -0.0116666667 0
0.0399999991 -0.0116666667 0
0.0366666652 -0.0116666667 0
0.0333333351 -0.0116666667 0
0.0299999993 -0.0116666667 0
0.0266666673 -0.0116666667 0
0.0233333334 -0.0116666667 0
0.0199999996 -0.0116666667 0
0.0166666675 -0.0116666667 0
0.0133333337 -0.0116666667 0
0.00999999978 -0.0116666667 0
0.00666666683 -0.0116666667 0
0.00333333341 -0.0116666667 0
0.0 -0.0116666667 0
0.100000001 -0.0149999997 0
0.0966666639 -0.0149999997 0
0.0933333337 -0.0149999997 0
0.0900000036 -0.0149999997 0
0.086666666 -0.0149999997 0
0.0833333358 -0.0149999997 0
0.0799999982 -0.0149999997 0
0.0766666681 -0.0149999997 0
0.0733333305 -0.0149999997 0
0.0700000003 -0.0149999997 0
0.0666666701 -0.0149999997 0
0.0633333325 -0.0149999997 0
0.0599999987 -0.0149999997 0
0.0566666685 -0.0149999997 0
0.0533333346 -0.0149999997 0
0.0500000007 -0.0149999997 0
0.0466666669 -0.0149999997 0
0.043333333 -0.0149999997 0
0.0399999991 -0.0149999997 0
0.0366666652 -0.0149999997 0
0.0333333351 -0.0149999997 0
0.0299999993 -0.0149999997 0
0.0266666673 -0.0149999997 0
0.0233333334 -0.0149999997 0
0.0199999996 -0.0149999997 0
0.0166666675 -0.0149999997 0
0.0133333337 -0.0149999997 0
0.00999999978 -0.0149999997 0
0.00666666683 -0.0149999997 0
0.00333333341 -0.0149999997 0
0.0 -0.0149999997 0
0.100000001 -0.0183333326 0
0.0966666639 -0.0183333326 0
0.0933333337 -0.0183333326 0
0.0900000036 -0.0183333326 0
0.086666666 -0.0183333326 0
0.0833333358 -0.0183333326 0
0.0799999982 -0.0183333326 0
0.0766666681 -0.0183333326 0
0.0733333305 -0.0183333326 0
0.0700000003 -0.0183333326 0
0.0666666701 -0.0183333326 0
0.0633333325 -0.0183333326 0
0.0599999987 -0.0183333326 0
0.0566666685 -0.0183333326 0
0.0533333346 -0.0183333326 0
0.0500000007 -0.0183333326 0
0.0466666669 -0.0183333326 0
0.043333333 -0.0183333326 0
0.0399999991 -0.0183333326 0
0.0366666652 -0.0183333326 0
0.0333333351 -0.0183333326 0
0.0299999993 -0.0183333326 0
0.0266666673 -0.0183333326 0
0.0233333334 -0.0183333326 0
0.0199999996 -0.0183333326 0
0.0166666675 -0.0183333326 0
0.0133333337 -0.0183333326 0
0.00999999978 -0.0183333326 0
0.00666666683 -0.0183333326 0
0.00333333341 -0.0183333326 0
0.0 -0.0183333326 0
0.100000001 -0.0216666665 0
0.0966666639 -0.0216666665 0
0.0933333337 -0.0216666665 0
0.0900000036 -0.0216666665 0
0.086666666 -0.0216666665 0
0.0833333358 -0.0216666665 0
0.0799999982 -0.0216666665 0
0.0766666681 -0.0216666665 0
0.0733333305 -0.0216666665 0
0.0700000003 -0.0216666665 0
0.0666666701 -0.0216666665 0
0.0633333325 -0.0216666665 0
0.0599999987 -0.0216666665 0
0.0566666685 -0.0216666665 0
0.0533333346 -0.0216666665 0
0.0500000007 -0.0216666665 0
0.0466666669 -0.0216666665 0
0.043333333 -0.0216666665 0
0.0399999991 -0.0216666665 0
0.0366666652 -0.0216666665 0
0.0333333351 -0.0216666665 0
0.0299999993 -0.0216666665 0
0.0266666673 -0.0216666665 0
0.0233333334 -0.0216666665 0
0.0199999996 -0.0216666665 0
0.0166666675 -0.0216666665 0
0.0133333337 -0.0216666665 0
0.00999999978 -0.0216666665 0
0.00666666683 -0.0216666665 0
0.00333333341 -0.0216666665 0
0.0 -0.0216666665 0
0.100000001 -0.0250000004 0
0.0966666639 -0.0250000004 0
0.0933333337 -0.0250000004 0
0.0900000036 -0.0250000004 0
0.086666666 -0.0250000004 0
0.0833333358 -0.0250000004 0
0.0799999982 -0.0250000004 0
0.0766666681 -0.0250000004 0
0.0733333305 -0.0250000004 0
0.0700000003 -0.0250000004 0
0.0666666701 -0.0250000004 0
0.0633333325 -0.0250000004 0
0.0599999987 -0.0250000004 0
0.0566666685 -0.0250000004 0
0.0533333346 -0.0250000004 0
0.0500000007 -0.0250000004 0
0.0466666669 -0.0250000004 0
0.043333333 -0.0250000004 0
0.0399999991 -0.0250000004 0
0.0366666652 -0.0250000004 0
0.0333333351 -0.0250000004 0
0.0299999993 -0.0250000004 0
0.0266666673 -0.0250000004 0
0.0233333334 -0.0250000004 0
0.0199999996 -0.0250000004 0
0.0166666675 -0.0250000004 0
0.0133333337 -0.0250000004 0
0.00999999978 -0.0250000004 0
0.00666666683 -0.0250000004 0
0.00333333341 -0.0250000004 0
0.0 -0.0250000004 0
0.100000001 -0.0283333343 0
0.0966666639 -0.0283333343 0
0.0933333337 -0.0283333343 0
0.0900000036 -0.0283333343 0
0.086666666 -0.0283333343 0
0.0833333358 -0.0283333343 0
0.0799999982 -0.0283333343 0
0.0766666681 -0.0283333343 0
0.0733333305 -0.0283333343 0
0.0700000003 -0.0283333343 0
0.0666666701 -0.0283333343 0
0.0633333325 -0.0283333343 0
0.0599999987 -0.0283333343 0
0.0566666685 -0.0283333343 0
0.0533333346 -0.0283333343 0
0.0500000007 -0.0283333343 0
0.0466666669 -0.0283333343 0
0.043333333 -0.0283333343 0
0.0399999991 -0.0283333343 0
0.0366666652 -0.0283333343 0
0.0333333351 -0.0283333343 0
0.0299999993 -0.0283333343 0
0.0266666673 -0.0283333343 0
0.0233333334 -0.0283333343 0
0.0199999996 -0.0283333343 0
0.0166666675 -0.0283333343 0
0.0133333337 -0.0283333343 0
0.00999999978 -0.0283333343 0
0.00666666683 -0.0283333343 0
0.00333333341 -0.0283333343 0
0.0 -0.0283333343 0
[...]
POINT_DATA 961
SCALARS Temp float 1
LOOKUP_TABLE default
284.641283188667
252.79548160276698
230.1036189907689
215.2314190546005
206.27288284341802
201.3050532749998
198.76020822427986
197.55037109509877
197.01375229591613
196.79045587922394
196.70280323700442
196.67017531695618
196.65860357500182
196.65468358180735
196.65343714659397
196.65315632183496
196.65343714651087
196.6546835815211
196.65860358180805
196.6701753376831
196.7028031713748
196.7904559386634
197.01375264185748
197.55037100574762
198.76020995401836
201.30505090624845
206.27288550332557
215.23141085486998
230.10362159907663
252.79551145019082
284.6412828918912
252.79551363508023
219.8411270633668
196.35805533064908
180.96615810300642
171.69372583120798
166.55128893237261
163.91669575796007
162.66404026108347
162.10836090947046
161.8771045449127
161.78631631359022
161.75251722793067
161.74052877078552
161.7364671790813
161.73517559627265
161.73488458073385
161.73517559618645
161.7364671787847
161.7405287778371
161.75251724940256
161.78631624560876
161.8771046064745
162.1083612677168
162.66404016855614
163.91669754879368
166.551286480193
171.69372858444103
180.96614961630146
196.3580580299756
219.84115795061032
252.7955133280106
230.10362320730746
196.35802574805845
172.30774287611337
156.54103577737405
147.04054645045824
141.77017817941254
139.06922434210674
137.78460493234
137.21455867736105
136.97724479793624
136.88404804772287
136.84934126717178
136.83702707467125
136.8328539091504
136.8315264976524
136.83122735589404
136.8315264975637
136.83285390884555
136.83702708191524
136.84934128922274
136.8840479779275
136.97724486112014
137.2145590449174
137.7846048374142
139.06922617830082
141.77017566576373
147.04054927174465
156.54102708283128
172.3077456408357
196.35805737900534
230.10362289296694
215.23141120041743
180.96611550205037
156.54102290979563
140.52463061126687
130.87070242721995
125.513277883002
122.76660584268734
121.45968015288473
120.8794763959493
120.63782429787123
120.54288091550123
120.50750793738376
120.49495193455373
120.49069505446832
120.4893405055803
120.4890351697619
120.48934050548992
120.49069505415727
120.49495194194114
120.5075079598616
120.54288084438255
120.63782436222394
120.87947677012112
121.45968005625846
122.76660771030593
125.51327532720607
130.87070529452012
140.52462177748674
156.5410257178621
180.9661476228927
215.23141088137584
206.27288593672924
171.69369424263434
147.04054514930405
130.87071430589546
121.12133666680958
115.70899334757095
112.93303635307056
111.61159170211488
111.02466811049713
110.78009933995304
110.68396307614782
110.6481281994015
110.63540212353031
110.63108557079322
110.62971144793346
110.62940160893216
110.62971144784167
110.63108557047767
110.63540213101922
110.64812822217681
110.68396300411885
110.78009940509705
111.02466848907336
111.61159160435975
112.93303824095806
115.70899076493578
121.12133956290846
130.8707053859575
147.0405479838433
171.6937266604186
206.27288561491
201.30505221812788
166.55125286997992
141.7701724516328
125.5132853339888
115.70898880772285
110.26453135462465
107.47114271723409
106.14089210906586
105.54981388321511
105.30340698402598
105.20650473381589
105.17036785291405
105.15752864922372
105.15317175951782
105.15178421573852
105.15147125973414
105.15178421564579
105.15317175919917
105.15752865678036
105.17036787588508
105.20650466119699
105.30340704967304
105.54981426453537
106.14089201060987
107.47114461728532
110.26452875612244
115.70899172050898
125.51327636478128
141.77017530108793
166.55128545361313
201.30505189480888
198.7602102989558
163.9166628458214
139.06922192570107
122.76661669913071
112.9330352195355
107.47114615958837
104.6681074712397
103.33287862549383
102.7394002864404
102.49190813176845
102.39454381980865
102.35822092937823
102.34531064597701
102.34092793300121
102.33953165400348
102.33921664683407
102.33953165391011
102.34092793268073
102.34531065357659
102.35822095247066
102.39454374683017
102.4919081977157
102.73940066935947
103.3328785266311
104.66810937808647
107.47114355236855
112.9330381412891
122.7666077038274
139.06922478293174
163.91669551507962
198.76020997489388
197.5503715600857
162.66400563843987
137.7846008012187
121.45968928385712
111.61158880681695
106.14089378565542
103.33287684722922
101.99502122460761
101.4002463052204
101.15215368875303
101.05452756689685
101.01809680036838
101.005144359969
101.00074600379304
100.99934433318896
100.99902804418953
100.99934433309527
101.00074600347126
101.0051443675944
101.01809682353166
101.05452749371233
101.15215375486812
101.4002466890115
101.99502112552369
103.33287875761616
106.14089117397454
111.61159173305295
121.45968027570848
137.78460366221424
162.66403834873995
197.5503712356846
197.01375306380638
162.10832658087372
137.2145548654702
120.87948586048499
111.02466554467156
105.5498158952107
102.73939884206088
101.40024664151841
100.80481565193806
100.55641135693955
100.45864581126335
100.42215612472687
100.40918008618013
100.40477276667653
100.40336794218108
100.40305089304077
100.4033679420872
100.40477276635409
100.40918009382004
100.42215614792954
100.45864573796766
100.55641142314303
100.80481603617503
101.4002465423221
102.73940075417251
105.54981328139695
111.02466847299954
120.87947684643473
137.2145577281674
162.10835930953036
197.01375273926197
196.7904562252595
161.87706977121286
136.97724053669629
120.63783330861305
110.7800963114805
105.30340853154858
102.49190621960935
101.15215355693839
100.5564108880782
100.30785454961166
100.21001913383493
100.17349911665478
100.16051060626975
100.15609842876118
100.15469185620972
100.15437437950114
100.15469185611566
100.15609842843841
100.16051061391747
100.17349913987793
100.21001906048286
100.30785461585873
100.55641127252929
101.15215345768824
102.49190813250895
105.30340591677854
110.78009924072404
120.63782429202001
136.97724340011516
161.8771025075718
196.7904559006586
196.70280351366952
161.7862814647756
136.88404371226395
120.54288985209672
110.68395997115512
105.20650620483518
102.394541830193
101.0545273577263
100.45864526483774
100.21001905633078
100.11215063126014
100.07561587909613
100.06262113997639
100.05820647077914
100.05679898010546
100.05648127529948
100.05679898001138
100.05820647045617
100.06262114762797
100.07561590232916
100.11215055788095
100.21001912259831
100.4586456493856
101.05452725845218
102.39454374343153
105.20650358966141
110.68396290077627
120.54288083447123
136.8840465759713
161.78631420418264
196.70280318904773
196.67017565946196
161.7524824460948
136.84933700156702
120.50751694572735
110.64812516652835
105.17036939689996
102.35821901286049
101.01809666463386
100.42215565181071
100.17349911276874
100.07561595275476
100.03907443320851
100.02607675082751
100.02166087124067
100.02025292341692
100.01993510318621
100.02025292332291
100.02166087091754
100.02607675848108
100.03907445644626
100.07561587936331
100.17349917904528
100.42215603640008
101.01809656534941
102.35822092623704
105.17036678156494
110.64812809629674
120.50750792770489
136.84933986538383
161.75251518664518
196.67017533483286
196.65860390772693
161.7404939783813
136.83702279860182
120.49496093243735
110.63539907985836
105.15753018241395
102.34530871851864
101.00514421331128
100.4091796023065
100.16051059143778
100.06262120269008
100.02607673987521
100.01307774011335
100.00866130333085
100.00725313970085
100.00693526408129
100.00725313960683
100.00866130300771
100.01307774776778
100.02607676311496
100.06262112929325
100.16051065771792
100.4091799869126
101.0051441140228
102.34531063194831
105.15752756701778
110.63540200968137
120.49495191426982
136.83702566245802
161.74052671934047
196.65860358309536
196.6546839087164
161.7364323805022
136.83284962686906
120.49070404608801
110.63108252069956
105.1531732862612
102.34092599902617
101.00074585061404
100.40477227626253
100.15609840738979
100.05820652695216
100.0216608537437
100.00866129678582
100.0042446177376
100.00283635792981
100.00251845722694
100.00283635783563
100.00424461741441
100.00866130444055
100.0216608769842
100.05820645355311
100.15609847367134
100.40477266087504
101.00074575132393
102.34092791247535
105.15317067084287
110.63108545054189
120.49069502786992
136.83285249073893
161.73646512160073
196.6546835840841
196.65343747418834
161.73514079835616
136.83152221609413
120.48934949796092
110.62970839858818
105.15178574324824
102.33952972078829
100.99934418077886
100.40336745253535
100.15469183561004
100.0567990370515
100.02025290669253
100.0072531339287
100.0028363587026
100.00142805986381
100.00111014883666
100.00142805976976
100.00283635837937
100.00725314158338
100.02025292993325
100.05679896365157
100.15469190189208
100.40336783715001
100.99934408148816
102.33953163424407
105.15178312782261
110.62971132843683
120.48934047972611
136.83152507996817
161.73517353949921
196.65343714955588
196.65315664982913
161.73484978322077
136.83122307476015
120.489044162581
110.62939856002635
105.15147278769035
102.33921471406576
100.99902789222959
100.40305040384548
100.15437435935344
100.05648133269783
100.01993508691406
100.00693525876139
100.00251845845213
100.00111014928918
100.00079223550658
100.00111014919517
100.00251845812888
100.00693526641614
100.01993511015485
100.05648125929781
100.15437442563554
100.40305078846067
100.99902779293852
102.33921662752302
105.15147017226293
110.62940148987636
120.48903514434235
136.8312259386353
161.734882524374
196.6531563251965
196.65343747441628
161.73514079859234
136.8315222163369
120.48934949820863
110.6297083988395
105.15178574350207
102.33952972104376
100.99934418103541
100.40336745279242
100.15469183586747
100.05679903730909
100.02025290695008
100.00725313418633
100.00283635896032
100.00142806012155
100.00111014909449
100.00142806002745
100.0028363586372
100.00725314184102
100.02025293019086
100.05679896390924
100.15469190214942
100.40336783740703
100.99934408174452
102.33953163449954
105.1517831280764
110.6297113286882
120.48934047997396
136.83152508021098
161.73517353973557
196.65343714978377
196.65468390941132
161.73643238122241
136.83284962760908
120.49070404684295
110.63108252146517
105.15317328703411
102.34092599980382
101.00074585139461
100.40477227704481
100.15609840817284
100.05820652773575
100.0216608545274
100.00866129756976
100.00424461852151
100.00283635871372
100.00251845801074
100.0028363586195
100.00424461819819
100.00866130522435
100.02166087776796
100.05820645433667
100.15609847445431
100.4047726616571
101.00074575210431
102.34092791325281
105.15317067161583
110.63108545130757
120.49069502862484
136.83285249147886
161.7364651223209
196.6546835847791
196.65860390979472
161.74049398052372
136.83702280080274
120.49496093468166
110.63539908213342
105.15753018470954
102.34530872082728
101.00514421562774
100.40917960462735
100.16051059376096
100.06262120501437
100.0260767422002
100.01307774243858
100.0086613056561
100.00725314202619
100.00693526640653
100.00725314193194
100.00866130533291
100.0130777500929
100.02607676543973
100.06262113161758
100.16051066004101
100.40917998923322
101.00514411633904
102.34531063425683
105.15752756931333
110.63540201195643
120.49495191651411
136.83702566465874
161.74052672148272
196.65860358516323
196.6701756659668
161.7524824528335
136.84933700848742
120.50751695278156
110.64812517367575
105.1703694041087
102.35821902010727
101.01809667190282
100.42215565909197
100.17349912005628
100.07561596004543
100.03907444050076
100.02607675812034
100.02166087853365
100.02025293070997
100.01993511047921
100.02025293061587
100.02166087821054
100.02607676577374
100.0390744637383
100.07561588665381
100.17349918633263
100.42215604368108
101.01809657261816
102.3582209334836
105.17036678877358
110.64812810344412
120.50750793475902
136.8493398723041
161.75251519338389
196.6701753413379
196.70280356251706
161.7862815153729
136.8840437642098
120.54288990502525
110.68396002475892
105.20650625887555
102.39454188449893
101.05452741218434
100.45864531937737
100.21001911091192
100.11215068586107
100.07561593370598
100.06262119459001
100.05820652539428
100.05679903472111
100.05648132991523
100.05679903462706
100.0582065250712
100.06262120224159
100.07561595693898
100.11215061248183
100.21001917717929
100.45864570392511
101.05452731290998
102.39454379773738
105.20650364370172
110.68396295437994
120.54288088739973
136.88404662791717
161.78631425477982
196.70280323789513
196.7904561923891
161.8770697371679
136.97724050175168
120.63783327301844
110.7800962754441
105.30340849523003
102.49190618312164
101.1521535203555
100.55641085144497
100.30785451295327
100.21001909716502
100.17349907997963
100.16051056959225
100.15609839208275
100.15469181953095
100.1543743428224
100.1546918194369
100.15609839176
100.16051057723996
100.17349910320264
100.21001902381272
100.30785457920047
100.55641123589604
101.15215342110531
102.49190809602106
105.30340588045983
110.78009920468756
120.6378242564254
136.97724336517058
161.87710247352675
196.79045586778813
197.01375336237092
162.10832689005946
137.2145551826943
120.87948618342391
111.0246658714175
105.5498162243299
102.73939917256408
101.40024697277715
100.80481598358355
100.55641168877088
100.45864614317881
100.42215645667831
100.40918041814601
100.40477309864812
100.40336827415466
100.40305122501476
100.4033682740608
100.4047730983257
100.40918042578602
100.42215647988094
100.4586460698832
100.5564117549743
100.80481636782042
101.40024687358083
102.73940108467559
105.54981361051603
111.02466879974526
120.87947716937357
137.21455804539158
162.10835961871604
197.01375303782652
197.55037136377047
162.66400543515826
137.78460059269926
121.45968907164726
111.61158859217566
106.14089356951803
103.33287663023211
101.99502100714885
101.40024608752954
101.15215347095248
101.05452734904748
101.0180965824984
101.00514414209093
101.0007457859119
100.99934411530685
100.99902782630706
100.99934411521316
101.00074578559023
101.00514414971644
101.01809660566181
101.05452727586302
101.15215353706763
101.40024647132056
101.9950209080649
103.3328785406191
106.140890957837
111.6115915184115
121.4596800634985
137.784603453695
162.66403814545822
197.55037103936928
198.76021232919524
163.91666494777402
139.0692240809066
122.76661889123704
112.93303743545059
107.47114838979637
104.66810970943617
103.33288086785421
102.73940253083005
102.49191037708572
102.39454606552519
102.3582231752572
102.34531289191862
102.34093017896605
102.33953389997605
102.3392188928086
102.33953389988281
102.34093017864555
102.34531289951833
102.35822319834968
102.39454599254678
102.49191044303284
102.73940291374889
103.3328807689912
104.66811161628277
107.47114578257651
112.93304035720409
122.76660989593385
139.06922693813706
163.91669761703204
198.76021200513293
201.305053265154
166.55125395382927
141.77017356250695
125.51328646329532
115.70898994869043
110.26453250243414
107.47114386877149
106.14089326249444
105.54981503753991
105.30340813874888
105.20650588870562
105.17036900787
105.15752980420434
105.15317291450735
105.15178537073098
105.1514724147274
105.15178537063844
105.15317291418893
105.15752981176108
105.17036903084077
105.20650581608665
105.30340820439591
105.54981541885982
106.14089316403816
107.4711457688224
110.26452990393179
115.70899286147657
125.51327749408779
141.77017641196218
166.55128653746235
201.30505294183465
206.27288233901731
171.69369051863447
147.04054133309893
130.87071042723997
121.12133274898561
115.70898940699576
112.9330324002363
111.61158774313587
111.02466414864193
110.78009537683542
110.68395911250813
110.64812423555766
110.63539815961049
110.6310816068463
110.62970748397773
110.62939764497436
110.62970748388602
110.63108160653093
110.63539816709931
110.64812425833271
110.68395904047901
110.78009544197916
111.02466452721787
111.61158764538033
112.93303428812357
115.7089868243604
121.12133564508443
130.87070150730204
147.04054416763805
171.69372293641874
206.27288201719813
215.23141777663145
180.96612230836078
156.54102988263708
140.5246376955727
130.87070958042514
125.51328507556192
122.7666130560669
121.45968737650074
120.87948362426334
120.63783152820713
120.54288814665738
120.50751516885516
120.49495916614013
120.49070228609479
120.48934773721997
120.48904240140456
120.48934773712955
120.49070228578381
120.49495917352749
120.5075151913328
120.54288807553854
120.63783159255962
120.8794839984347
121.45968727987413
122.76661492368513
125.51328251976565
130.87071244772503
140.52462886179242
156.5410326907033
180.96615442920276
215.23141745758957
230.10361659609467
196.35801890603014
172.30773586803076
156.54102865904488
147.0405392646645
141.77017095553015
139.0692170983313
137.7845976789156
137.2145514195696
136.97723753829086
136.8840407873357
136.84933400650345
136.83701981390138
136.83284664834568
136.83151923683621
136.8312200950754
136.8315192367476
136.83284664804071
136.8370198211455
136.84933402855427
136.88404071754033
136.97723760147477
137.21455178712566
137.7845975839895
139.06921893452508
141.77016844188097
147.0405420859506
156.5410199645018
172.30773863275283
196.35805053697703
230.10361628175414
252.79553862374996
219.84115292258215
196.35808181248368
180.966184994961
171.69375297173715
166.55131621172617
163.91672310897965
162.66406764645035
162.10838831019757
161.87713195208403
161.78634372331157
161.75254463860855
161.74055618180526
161.73649459021757
161.7352030074461
161.73491199191565
161.73520300736
161.73649458992094
161.74055618885689
161.75254466008045
161.78634365533023
161.8771320136459
162.1083886684439
162.66406755392288
163.91672489981298
166.5513137595463
171.69375572497003
180.96617650825593
196.35808451180966
219.84118380982463
252.79553831668022
284.64128300984123
252.7954814177562
230.10361880142406
215.2314188624815
206.27288264967936
201.30505308039662
198.7602080292535
197.5503708998814
197.0137521006185
196.79045568389498
196.70280304166394
196.6701751216116
196.65860337965597
196.65468338646133
196.65343695124756
196.65315612648865
196.65343695116445
196.6546833861751
196.65860338646232
196.67017514233865
196.7028029760345
196.79045574333455
197.01375244656003
197.55037081052996
198.7602097589918
201.30505071164512
206.27288530958666
215.23141066275062
230.10362140973137
252.79551126517987
284.6412827130652
