# vtk DataFile Version 2.0
Unstructured Grid Example
ASCII
DATASET UNSTRUCTURED_GRID

POINTS 961 float
0.100000001 0.00499999989 0
0.0966666639 0.00499999989 0
0.0933333337 0.00499999989 0
0.0900000036 0.00499999989 0
0.086666666 0.00499999989 0
0.0833333358 0.00499999989 0
0.0799999982 0.00499999989 0
0.0766666681 0.00499999989 0
0.0733333305 0.00499999989 0
0.0700000003 0.00499999989 0
0.0666666701 0.00499999989 0
0.0633333325 0.00499999989 0
0.0599999987 0.00499999989 0
0.0566666685 0.00499999989 0
0.0533333346 0.00499999989 0
0.0500000007 0.00499999989 0
0.0466666669 0.00499999989 0
0.043333333 0.00499999989 0
0.0399999991 0.00499999989 0
0.0366666652 0.00499999989 0
0.0333333351 0.00499999989 0
0.0299999993 0.00499999989 0
0.0266666673 0.00499999989 0
0.0233333334 0.00499999989 0
0.0199999996 0.00499999989 0
0.0166666675 0.00499999989 0
0.0133333337 0.00499999989 0
0.00999999978 0.00499999989 0
0.00666666683 0.00499999989 0
0.00333333341 0.00499999989 0
0.0 0.00499999989 0
0.100000001 0.00166666671 0
0.0966666639 0.00166666671 0
0.0933333337 0.00166666671 0
0.0900000036 0.00166666671 0
0.086666666 0.00166666671 0
0.0833333358 0.00166666671 0
0.0799999982 0.00166666671 0
0.0766666681 0.00166666671 0
0.0733333305 0.00166666671 0
0.0700000003 0.00166666671 0
0.0666666701 0.00166666671 0
0.0633333325 0.00166666671 0
0.0599999987 0.00166666671 0
0.0566666685 0.00166666671 0
0.0533333346 0.00166666671 0
0.0500000007 0.00166666671 0
0.0466666669 0.00166666671 0
0.043333333 0.00166666671 0
0.0399999991 0.00166666671 0
0.0366666652 0.00166666671 0
0.0333333351 0.00166666671 0
0.0299999993 0.00166666671 0
0.0266666673 0.00166666671 0
0.0233333334 0.00166666671 0
0.0199999996 0.00166666671 0
0.0166666675 0.00166666671 0
0.0133333337 0.00166666671 0
0.00999999978 0.00166666671 0
0.00666666683 0.00166666671 0
0.00333333341 0.00166666671 0
0.0 0.00166666671 0
0.100000001 -0.00166666671 0
0.0966666639 -0.00166666671 0
0.0933333337 -0.00166666671 0
0.0900000036 -0.00166666671 0
0.086666666 -0.00166666671 0
0.0833333358 -0.00166666671 0
0.0799999982 -0.00166666671 0
0.0766666681 -0.00166666671 0
0.0733333305 -0.00166666671 0
0.0700000003 -0.00166666671 0
0.0666666701 -0.00166666671 0
0.0633333325 -0.00166666671 0
0.0599999987 -0.00166666671 0
0.0566666685 -0.00166666671 0
0.0533333346 -0.00166666671 0
0.0500000007 -0.00166666671 0
0.0466666669 -0.00166666671 0
0.043333333 -0.00166666671 0
0.0399999991 -0.00166666671 0
0.0366666652 -0.00166666671 0
0.0333333351 -0.00166666671 0
0.0299999993 -0.00166666671 0
0.0266666673 -0.00166666671 0
0.0233333334 -0.00166666671 0
0.0199999996 -0.00166666671 0
0.0166666675 -0.00166666671 0
0.0133333337 -0.00166666671 0
0.00999999978 -0.00166666671 0
0.00666666683 -0.00166666671 0
0.00333333341 -0.00166666671 0
0.0 -0.00166666671 0
0.100000001 -0.00499999989 0
0.0966666639 -0.00499999989 0
0.0933333337 -0.00499999989 0
0.0900000036 -0.00499999989 0
0.086666666 -0.00499999989 0
0.0833333358 -0.00499999989 0
0.0799999982 -0.00499999989 0
0.0766666681 -0.00499999989 0
0.0733333305 -0.00499999989 0
0.0700000003 -0.00499999989 0
0.0666666701 -0.00499999989 0
0.0633333325 -0.00499999989 0
0.0599999987 -0.00499999989 0
0.0566666685 -0.00499999989 0
0.0533333346 -0.00499999989 0
0.0500000007 -0.00499999989 0
0.0466666669 -0.00499999989 0
0.043333333 -0.00499999989 0
0.0399999991 -0.00499999989 0
0.0366666652 -0.00499999989 0
0.0333333351 -0.00499999989 0
0.0299999993 -0.00499999989 0
0.0266666673 -0.00499999989 0
0.0233333334 -0.00499999989 0
0.0199999996 -0.00499999989 0
0.0166666675 -0.00499999989 0
0.0133333337 -0.00499999989 0
0.00999999978 -0.00499999989 0
0.00666666683 -0.00499999989 0
0.00333333341 -0.00499999989 0
0.0 -0.00499999989 0
0.100000001 -0.00833333377 0
0.0966666639 -0.00833333377 0
0.0933333337 -0.00833333377 0
0.0900000036 -0.00833333377 0
0.086666666 -0.00833333377 0
0.0833333358 -0.00833333377 0
0.0799999982 -0.00833333377 0
0.0766666681 -0.00833333377 0
0.0733333305 -0.00833333377 0
0.0700000003 -0.00833333377 0
0.0666666701 -0.00833333377 0
0.0633333325 -0.00833333377 0
0.0599999987 -0.00833333377 0
0.0566666685 -0.00833333377 0
0.0533333346 -0.00833333377 0
0.0500000007 -0.00833333377 0
0.0466666669 -0.00833333377 0
0.043333333 -0.00833333377 0
0.0399999991 -0.00833333377 0
0.0366666652 -0.00833333377 0
0.0333333351 -0.00833333377 0
0.0299999993 -0.00833333377 0
0.0266666673 -0.00833333377 0
0.0233333334 -0.00833333377 0
0.0199999996 -0.00833333377 0
0.0166666675 -0.00833333377 0
0.0133333337 -0.00833333377 0
0.00999999978 -0.00833333377 0
0.00666666683 -0.00833333377 0
0.00333333341 -0.00833333377 0
0.0 -0.00833333377 0
0.100000001 -0.0116666667 0
0.0966666639 -0.0116666667 0
0.0933333337 -0.0116666667 0
0.0900000036 -0.0116666667 0
0.086666666 -0.0116666667 0
0.0833333358 -0.0116666667 0
0.0799999982 -0.0116666667 0
0.0766666681 -0.0116666667 0
0.0733333305 -0.0116666667 0
0.0700000003 -0.0116666667 0
0.0666666701 -0.0116666667 0
0.0633333325 -0.0116666667 0
0.0599999987 -0.0116666667 0
0.0566666685 -0.0116666667 0
0.0533333346 -0.0116666667 0
0.0500000007 -0.0116666667 0
0.0466666669 -0.0116666667 0
0.043333333 -0.0116666667 0
0.0399999991 -0.0116666667 0
0.0366666652 -0.0116666667 0
0.0333333351 -0.0116666667 0
0.0299999993 -0.0116666667 0
0.0266666673 -0.0116666667 0
0.0233333334 -0.0116666667 0
0.0199999996 -0.0116666667 0
0.0166666675 -0.0116666667 0
0.0133333337 -0.0116666667 0
0.00999999978 -0.0116666667 0
0.00666666683 -0.0116666667 0
0.00333333341 -0.0116666667 0
0.0 -0.0116666667 0
0.100000001 -0.0149999997 0
0.0966666639 -0.0149999997 0
0.0933333337 -0.0149999997 0
0.0900000036 -0.0149999997 0
0.086666666 -0.0149999997 0
0.0833333358 -0.0149999997 0
0.0799999982 -0.0149999997 0
0.0766666681 -0.0149999997 0
0.0733333305 -0.0149999997 0
0.0700000003 -0.0149999997 0
0.0666666701 -0.0149999997 0
0.0633333325 -0.0149999997 0
0.0599999987 -0.0149999997 0
0.0566666685 -0.0149999997 0
0.0533333346 -0.0149999997 0
0.0500000007 -0.0149999997 0
0.0466666669 -0.0149999997 0
0.043333333 -0.0149999997 0
0.0399999991 -0.0149999997 0
0.0366666652 -0.0149999997 0
0.0333333351 -0.0149999997 0
0.0299999993 -0.0149999997 0
0.0266666673 -0.0149999997 0
0.0233333334 -0.0149999997 0
0.0199999996 -0.0149999997 0
0.0166666675 -0.0149999997 0
0.0133333337 -0.0149999997 0
0.00999999978 -0.0149999997 0
0.00666666683 -0.0149999997 0
0.00333333341 -0.0149999997 0
0.0 -0.0149999997 0
0.100000001 -0.0183333326 0
0.0966666639 -0.0183333326 0
0.0933333337 -0.0183333326 0
0.0900000036 -0.0183333326 0
0.086666666 -0.0183333326 0
0.0833333358 -0.0183333326 0
0.0799999982 -0.0183333326 0
0.0766666681 -0.0183333326 0
0.0733333305 -0.0183333326 0
0.0700000003 -0.0183333326 0
0.0666666701 -0.0183333326 0
0.0633333325 -0.0183333326 0
0.0599999987 -0.0183333326 0
0.0566666685 -0.0183333326 0
0.0533333346 -0.0183333326 0
0.0500000007 -0.0183333326 0
0.0466666669 -0.0183333326 0
0.043333333 -0.0183333326 0
0.0399999991 -0.0183333326 0
0.0366666652 -0.0183333326 0
0.0333333351 -0.0183333326 0
0.0299999993 -0.0183333326 0
0.0266666673 -0.0183333326 0
0.0233333334 -0.0183333326 0
0.0199999996 -0.0183333326 0
0.0166666675 -0.0183333326 0
0.0133333337 -0.0183333326 0
0.00999999978 -0.0183333326 0
0.00666666683 -0.0183333326 0
0.00333333341 -0.0183333326 0
0.0 -0.0183333326 0
0.100000001 -0.0216666665 0
0.0966666639 -0.0216666665 0
0.0933333337 -0.0216666665 0
0.0900000036 -0.0216666665 0
0.086666666 -0.0216666665 0
0.0833333358 -0.0216666665 0
0.0799999982 -0.0216666665 0
0.0766666681 -0.0216666665 0
0.0733333305 -0.0216666665 0
0.0700000003 -0.0216666665 0
0.0666666701 -0.0216666665 0
0.0633333325 -0.0216666665 0
0.0599999987 -0.0216666665 0
0.0566666685 -0.0216666665 0
0.0533333346 -0.0216666665 0
0.0500000007 -0.0216666665 0
0.0466666669 -0.0216666665 0
0.043333333 -0.0216666665 0
0.0399999991 -0.0216666665 0
0.0366666652 -0.0216666665 0
0.0333333351 -0.0216666665 0
0.0299999993 -0.0216666665 0
0.0266666673 -0.0216666665 0
0.0233333334 -0.0216666665 0
0.0199999996 -0.0216666665 0
0.0166666675 -0.0216666665 0
0.0133333337 -0.0216666665 0
0.00999999978 -0.0216666665 0
0.00666666683 -0.0216666665 0
0.00333333341 -0.0216666665 0
0.0 -0.0216666665 0
0.100000001 -0.0250000004 0
0.0966666639 -0.0250000004 0
0.0933333337 -0.0250000004 0
0.0900000036 -0.0250000004 0
0.086666666 -0.0250000004 0
0.0833333358 -0.0250000004 0
0.0799999982 -0.0250000004 0
0.0766666681 -0.0250000004 0
0.0733333305 -0.0250000004 0
0.0700000003 -0.0250000004 0
0.0666666701 -0.0250000004 0
0.0633333325 -0.0250000004 0
0.0599999987 -0.0250000004 0
0.0566666685 -0.0250000004 0
0.0533333346 -0.0250000004 0
0.0500000007 -0.0250000004 0
0.0466666669 -0.0250000004 0
0.043333333 -0.0250000004 0
0.0399999991 -0.0250000004 0
0.0366666652 -0.0250000004 0
0.0333333351 -0.0250000004 0
0.0299999993 -0.0250000004 0
0.0266666673 -0.0250000004 0
0.0233333334 -0.0250000004 0
0.0199999996 -0.0250000004 0
0.0166666675 -0.0250000004 0
0.0133333337 -0.0250000004 0
0.00999999978 -0.0250000004 0
0.00666666683 -0.0250000004 0
0.00333333341 -0.0250000004 0
0.0 -0.0250000004 0
0.100000001 -0.0283333343 0
0.0966666639 -0.0283333343 0
0.0933333337 -0.0283333343 0
0.0900000036 -0.0283333343 0
0.086666666 -0.0283333343 0
0.0833333358 -0.0283333343 0
0.0799999982 -0.0283333343 0
0.0766666681 -0.0283333343 0
0.0733333305 -0.0283333343 0
0.0700000003 -0.0283333343 0
0.0666666701 -0.0283333343 0
0.0633333325 -0.0283333343 0
0.0599999987 -0.0283333343 0
0.0566666685 -0.0283333343 0
0.0533333346 -0.0283333343 0
0.0500000007 -0.0283333343 0
0.0466666669 -0.0283333343 0
0.043333333 -0.0283333343 0
0.0399999991 -0.0283333343 0
0.0366666652 -0.0283333343 0
0.0333333351 -0.0283333343 0
0.0299999993 -0.0283333343 0
0.0266666673 -0.0283333343 0
0.0233333334 -0.0283333343 0
0.0199999996 -0.0283333343 0
0.0166666675 -0.0283333343 0
0.0133333337 -0.0283333343 0
0.00999999978 -0.0283333343 0
0.00666666683 -0.0283333343 0
0.00333333341 -0.0283333343 0
0.0 -0.0283333343 0
[...]
POINT_DATA 961
SCALARS Temp float 1
LOOKUP_TABLE default
335.77218904797934
304.54000948968485
279.89628016888753
261.35988161218637
248.08912832726693
239.0535597919442
233.2040148105104
229.60205631030018
227.49075038372763
226.3113758698923
225.6826707020121
225.36237666271992
225.20635852164878
225.13408457259376
225.1035453017883
225.09523510750978
225.10354529937095
225.1340845660906
225.20635862589785
225.3623768918947
225.68267014855604
226.31137623375275
227.49075191855852
229.60205593976244
233.20401926300468
239.0535548281112
248.0891326372358
261.359870387594
279.89628317587375
304.5400402593246
335.7721888812818
304.540042360426
272.17897048704083
246.64408193120443
227.4369716149255
213.68567703980943
204.32263548116305
198.2608721852774
194.52808888530333
192.3400050761795
191.11768622257912
190.46605662715857
190.134067123174
189.9723437995735
189.8974232574142
189.86576429114658
189.85714917494192
189.86576428864058
189.89742325067274
189.97234390763685
190.1340673607219
190.46605605350604
191.1176865996978
192.34000666685623
194.5280885012891
198.26087679938777
204.32263033731965
213.68568150590653
227.4369599840306
246.64408504696132
272.17900236910873
304.54004218772866
279.89628484592487
246.64405177968294
220.40483732310838
200.66680425796005
186.53438696462115
176.91102822267362
170.68012524455747
166.84277023434606
164.593122043486
163.33625249085324
162.66611422740755
162.32464781299
162.15828458145813
162.0812039313542
162.04862823265535
162.0397629787314
162.04862823007633
162.0812039244175
162.15828469262854
162.3246480573323
162.66611363741697
163.33625287865743
164.59312367900807
166.84276983952233
170.68012998764567
176.9110229355145
186.53439155467194
200.66679230512156
220.4048405248997
246.6440845404365
279.8962846685431
261.3598705844407
227.43692448334568
200.66678743384912
180.52772273526955
166.10669427021267
156.2856141728827
149.92580210022385
146.00844470229623
143.71150232243204
142.42797416614553
141.74348946318713
141.39464261575296
141.22464868800725
141.14586994153368
141.11257067423293
141.10350749141725
141.11257067159656
141.14586993444303
141.2246488016136
141.39464286539638
141.74348886049955
142.42797456221342
143.71150399246991
146.00844429916498
149.92580694177985
156.28560877664924
166.10669895425534
180.52771053893153
200.66679070056063
227.43695790593927
261.3598704035848
248.08913296976593
213.6856456389057
186.53438675548324
166.10671147068487
151.47732588855928
141.51297458435138
135.0593572395681
131.0835091521324
128.75181290910245
127.44858851317788
126.75344407090034
126.39908138919829
126.22635805343576
126.1462954575998
126.11244641568098
126.10323237927241
126.11244641300065
126.1462954503926
126.22635816887804
126.39908164281262
126.75344345874844
127.44858891536816
128.75181460456375
131.08350874289363
135.05936215292942
141.51296910888388
151.47733064057002
166.10669909882293
186.53439006885787
213.68567953614223
248.08913278646676
239.05355701376652
204.32259604484778
176.91102006067203
156.2856234261893
141.51296635078825
131.44966530241368
124.93093638780661
120.914262652674
118.55816191782637
117.24101758219008
116.53828883592189
116.17997448333496
116.00528205748547
115.92428696554661
115.89003625341662
115.88071159869409
115.89003625070413
115.92428695825393
116.00528217425584
116.17997473980195
116.53828821701087
117.24101798872178
118.55816363119028
120.91426223914392
124.93094135113434
131.44965977206212
141.5129711496278
156.28561093384909
176.9110234059678
204.3226302659097
239.0535568288395
233.20401947633567
198.2608402387169
170.68012497986138
149.9258195247458
135.05935718639546
124.93094470470803
118.36912470197382
114.3252598512279
111.9527921940557
110.62624339477105
109.91835092027662
109.557324615909
109.38126994666352
109.29962469751182
109.26509203221124
109.2556894024699
109.26509202947591
109.2996246901593
109.38127006435607
109.55732487434004
109.91835029674313
110.62624380424722
111.95279391946454
114.32525943481835
118.36912969846473
124.9309391381202
135.05936201596472
149.9258069536858
170.68012834593452
198.2608746699084
233.2040192903814
229.60205688643885
194.52805256212986
166.84276559317664
146.00845772808793
131.08350456553381
120.91426642379608
114.32525524026596
110.26411029546232
107.88116082427426
106.5485393551758
105.83728360748933
105.47447510500793
105.2975171025175
105.2154369293048
105.18071421395271
105.17125877786911
105.1807142112019
105.21543692191204
105.29751722082379
105.47447536473423
105.83728298093047
106.54853976656142
107.88116255742497
110.26410987720759
114.3252602577502
120.91426083440275
131.08350941431206
146.0084451080553
166.8427689721206
194.52808712304778
229.60205669987013
227.4907525346856
192.33997030376653
164.5931190688394
143.71151709063165
128.75181005031882
118.55816745530537
111.95278934100052
107.88116260186169
105.49180132873862
104.15543157159901
103.44208012727475
103.0781501779039
102.90061808138653
102.8182588249505
102.78341313596098
102.77392335460921
102.7834131332003
102.81825881753167
102.90061820008445
103.07815043844855
103.4420794988204
104.15543198416863
105.49180306664385
107.88116218247744
111.95279437116558
118.55816185222467
128.7518149105416
143.711504441573
164.59312245537745
192.34000494093826
227.4907523477685
226.31137616657242
191.11764948283013
163.33624753370768
142.4279869329346
127.44858359917242
117.2410210542555
110.62623844971765
106.54853903812732
104.15542946830571
102.81684722423935
102.10224609641064
101.73764031288123
101.55975851000231
101.47722747112444
101.44230540400804
101.43279417242235
101.44230540124117
101.47722746368966
101.55975862894005
101.73764057392106
102.10224546681955
102.8168476375116
104.15543120900236
106.54853861808273
110.62624348719613
117.2410154433343
127.44858846590019
142.4279742674694
163.33625092451743
191.11768416272525
226.3113759794674
225.68267045659567
190.46601930116051
162.6661086888724
141.74350164844898
126.7534385536326
116.53829170435634
109.91834536046933
105.83728267644071
103.44207740649568
102.1022454797137
101.3869308443801
101.02193484367214
100.84384881024287
100.76121633205636
100.72624872959524
100.71672463448515
100.7262487268245
100.7612163246121
100.8438489293212
101.0219351049992
101.38693021413586
102.10224589338509
103.44207914876009
105.83728225602673
109.91835040197937
116.5382860891441
126.75344342389165
141.74348897412912
162.66611208197605
190.46605400390223
225.6826702693943
225.36237701141576
190.13403040051915
162.3246429060037
141.3946554525475
126.39907652720089
116.17997801757426
109.55731972342026
105.4744748465017
103.07814813083638
101.7376403721485
101.02193552069546
100.65672360195393
100.47852320841025
100.39583326764006
100.360839612304
100.35130811237696
100.3608396095313
100.39583326019032
100.478523327568
100.65672386344077
101.02193489009163
101.7376407860368
103.07814987394372
105.47447442589005
109.55732476705622
116.17997240011601
126.399081399293
141.39464277365897
162.32464630028474
190.13406511493787
225.36237682416754
225.20635878437005
189.97230698172078
162.15827958193685
141.2246614334125
126.22635309538991
116.00528549624379
109.38126495622687
105.29751674657749
102.90061593613419
101.55975847143203
100.84384938951044
100.47852311039165
100.30026140641486
100.21754029363491
100.18253236146028
100.17299677862815
100.18253235868636
100.21754028618217
100.3002615256152
100.47852337196353
100.84384875871717
101.5597588854331
102.90061767967511
105.29751632586465
109.38127000093513
116.00527987766124
126.22635796839168
141.22464875226987
162.1582829767959
189.97234170184635
225.20635859709992
225.13408474135449
189.89738633933405
162.0811988312174
141.145882585583
126.14629039503887
115.92429029935211
109.29961960044929
105.21543646665148
102.81825657240374
101.477227325296
100.76121680402827
100.39583306214901
100.21754018613768
100.13480304257554
100.09978769623291
100.09024998050005
100.09978769345821
100.13480303512115
100.21754030535975
100.39583332376368
100.76121617314026
101.47722773935284
102.81825831615635
105.21543604588955
109.29962464567126
115.92428468023456
126.14629526846987
141.14586990338307
162.0812022263461
189.89742106211168
225.13408455407497
225.10354548457224
189.86572738640535
162.04862314729996
141.11258333401736
126.11244136846398
115.89003960307805
109.2650869507688
105.18071376720975
102.78341089927997
101.44230527419224
100.72624921764088
100.36083942285109
100.18253227001398
100.09978771229626
100.06476890835147
100.05523019294723
100.06476890557651
100.09978770484099
100.18253238924594
100.36083968448523
100.72624858670994
101.44230568827395
102.78341264312634
105.18071334642606
109.26509199621444
115.8900339837293
126.11244624207936
141.11257065136562
162.0486265425434
189.86576211030678
225.10354529728866
225.0952353019097
189.85711228191624
162.03975790571997
141.10352016399267
126.10322734488123
115.88071496142675
109.25568433410703
105.17125834433634
102.77392113115836
101.43279405589813
100.71672513585193
100.351307936242
100.17299670050754
100.09025000989472
100.05523020627942
100.04569120097808
100.05523020350441
100.0902500024393
100.17299681974222
100.35130819788175
100.71672450490891
101.43279446998673
102.77392287503078
105.17125792354639
109.25568937961461
115.8807093420141
126.10323221854723
141.10350748121715
162.03976130099468
189.85714700612394
225.09523511462504
225.10354549029444
189.86572739233728
162.0486231534036
141.1125833402566
126.11244137480625
115.89003960949555
109.26508695723915
105.18071377371574
102.78341090580905
101.44230528073562
100.7262492241927
100.36083942940783
100.1825322765733
100.09978771885694
100.06476891491295
100.05523019950886
100.06476891213799
100.09978771140182
100.18253239580534
100.36083969104193
100.72624859326187
101.44230569481718
102.78341264965522
105.1807133529319
109.26509200268485
115.89003399014688
126.11244624842155
141.11257065760486
162.04862654864698
189.86576211623864
225.10354530301083
225.13408475539006
189.89738635388386
162.08119884618714
141.1458826008834
126.14629041058957
115.924290315085
109.2996196163095
105.21543648259717
102.81825658840421
101.47722734133045
100.76121682008281
100.3958330782149
100.21754020220972
100.13480305865082
100.09978771230948
100.09024999657714
100.09978770953485
100.13480305119633
100.21754032143174
100.39583333982962
100.76121618919468
101.47722775538718
102.81825833215662
105.21543606183495
109.29962466153145
115.92428469596756
126.1462952840206
141.14586991868336
162.0812022413157
189.89742107666132
225.1340845681104
225.20635881512572
189.9723070136015
162.15827961473389
141.2246614669274
126.22635312944536
116.00528553069013
109.38126499094443
105.29751678147531
102.90061597114708
101.55975850651515
100.84384942463478
100.47852314553917
100.30026144157472
100.21754032880112
100.18253239662938
100.17299681379797
100.18253239385531
100.21754032134831
100.30026156077501
100.4785234071109
100.84384879384143
101.5597589205161
102.90061771468778
105.29751636076233
109.38127003565252
116.00527991210751
126.22635800244716
141.22464878578458
162.1582830095927
189.972341733727
225.20635862785568
225.36237708214443
190.13403047383167
162.32464298141238
141.39465552959138
126.39907660546915
116.17997809672173
109.55731980317292
105.47447492665316
103.0781482112398
101.73764045270421
101.02193560133935
100.65672368264691
100.47852328912933
100.3958333483722
100.36083969304212
100.3513081931167
100.36083969026924
100.39583334092244
100.4785234082869
100.6567239441336
101.02193497073554
101.73764086659233
103.07814995434698
105.4744745060414
109.55732484680865
116.17997247926347
126.39908147756117
141.39464285070278
162.32464637569348
190.1340651882504
225.36237689489624
225.6826708544241
190.46601971350373
162.66610911295246
141.74350208164475
126.75343899361839
116.53829214918738
109.91834580861065
105.83728312674644
103.44207785815577
102.10224593218511
101.38693129731683
101.02193529686475
100.84384926357006
100.76121678545081
100.72624918301979
100.71672508791825
100.72624918024903
100.76121677800631
100.84384938264846
101.02193555819179
101.38693066707259
102.10224634585629
103.44207960042007
105.83728270633232
109.91835085012066
116.53828653397507
126.7534438638774
141.74348940732486
162.66611250605607
190.46605441624544
225.68267066722296
226.31137594906443
191.11764925739385
163.33624730187574
142.42798669615067
127.44858335871422
117.24102081118744
110.62623820487602
106.54853879213327
104.15542922159509
102.81684697710243
102.1022458490311
101.73764006536935
101.55975826242128
101.47722722350919
101.44230515637756
101.4327939247874
101.44230515361055
101.47722721607447
101.55975838135907
101.73764032640918
102.10224521943992
102.81684739037478
104.15543096229169
106.5485383720885
110.62624324235458
117.24101520026625
127.44858822544205
142.42797403068548
163.33625069268535
191.11768393728892
226.31137576195948
227.49075387203933
192.33997168978266
164.593120493935
143.71151854580867
128.75181152765597
118.55816894824959
111.95279084444698
107.88116411205952
105.49180284308373
104.15543308837925
103.44208164542299
103.07815169678776
102.90061960064884
102.81826034439746
102.78341465548986
102.77392487416103
102.78341465272928
102.8182603369789
102.90061971934682
103.07815195733241
103.44208101696871
104.15543350094902
105.49180458098886
107.8811636926754
111.95279587461188
118.55816334516891
128.75181638787876
143.71150589675014
164.59312388047294
192.34000632695427
227.49075368512237
229.60205616787985
194.52805181744955
166.842764827569
146.00845694642254
131.08350377208558
120.9142656220878
114.325254433029
110.26410948469275
107.88116001134908
106.54853854099372
105.83728279260653
105.47447428975129
105.2975162870699
105.21543611376465
105.18071339837205
105.17125796227715
105.18071339562141
105.21543610637207
105.29751640537623
105.4744745494776
105.83728216604774
106.54853895237929
107.8811617444997
110.2641090664379
114.32525945051333
120.91426003269453
131.0835086208637
146.00844432639002
166.84276820651317
194.52808637836736
229.60205598131122
233.20402473113103
198.260845684255
170.6801305776316
149.9258252387477
135.059362985166
124.93095056247263
118.36913059889932
114.32526577294762
111.95279813075439
110.62624934011055
109.91835687037995
109.557330568525
109.38127590054704
109.29963065200278
109.26509798696668
109.25569535729863
109.26509798423137
109.29963064465046
109.38127601823956
109.55733082695605
109.91835624684651
110.6262497495865
111.95279985616315
114.32526535653801
118.36913559538989
124.9309449958848
135.05936781473517
149.9258126676877
170.68013394370453
198.26088011544624
233.20402454517657
239.0535590191727
204.3225981229558
176.9110221966152
156.28562560610328
141.51296856260268
131.44966753629208
124.93093863622812
120.91426491023144
118.5581641808566
117.2410198483489
116.53829110378965
116.17997675209536
116.00528432669158
115.92428923496442
115.89003852292599
115.88071386822872
115.89003852021348
115.9242892276719
116.0052844434621
116.17997700856226
116.53829048487836
117.24102025488061
118.55816589422025
120.91426449670134
124.93094359955559
131.44966200594055
141.51297336144222
156.2856131137631
176.911025541911
204.32263234401776
239.05355883424548
248.0891269678135
213.68563941950922
186.53438036340503
166.1067049476176
151.4773192707272
141.51296790119468
135.0593505135191
131.08350239925463
128.7518061402293
127.44858173520659
126.75343728798677
126.39907460371728
126.22635126667952
126.14628867024138
126.11243962806391
126.10322559158418
126.11243962538362
126.14628866303413
126.22635138212163
126.39907485733164
126.75343667583482
127.44858213739676
128.75180783569047
131.0835019900156
135.05935542688033
141.51296242572687
151.47732402273792
166.1066925757555
186.53438367677973
213.6856733167458
248.089126784514
261.359879486919
227.4369337080625
200.66679691387984
180.52773240838633
166.10670408249712
156.28562408067788
149.92581207041587
146.00845471129975
143.7115123544355
142.42798421114708
141.74349951520267
141.39465267138684
141.22465874542607
141.14587999978957
141.11258073284648
141.1035175501286
141.11258073020997
141.1458799926991
141.22465885903244
141.39465292103012
141.74349891251507
142.4279846072149
143.7115140244731
146.00845430816844
149.92581691197162
156.285618684444
166.10670876653947
180.52772021204802
200.6668001805912
227.43696713065526
261.3598793060628
279.89627711973174
246.6440437740139
220.4048290963868
200.66679586444045
186.534378451216
176.91101962726268
170.68011659577434
166.84276155250393
164.59311334214217
163.33624377854125
162.6661055092072
162.32463909176778
162.1582758587529
162.0811952079572
162.04861950896395
162.0397542549595
162.048619506385
162.08119520102034
162.15827596992327
162.3246393361099
162.66610491921648
163.3362441663454
164.59311497766413
166.8427611576801
170.68012133886236
176.911014340103
186.5343830412663
200.66678391160121
220.4048322981776
246.64407653476732
279.8962769423494
304.5400680910034
272.1789971478618
246.64410932679277
227.43699956394002
213.68570538570702
204.3226640978246
198.2609009776306
194.5281177861173
192.3400340407443
191.1177152228605
190.46608564653855
190.134096152315
189.97237283348477
189.89745229354224
189.86579332821367
189.85717821226496
189.8657933257076
189.89745228680056
189.97237294154817
190.134096389863
190.46608507288633
191.11771559997916
192.34003563142116
194.5281174021032
198.2609055917408
204.32265895398095
213.68570985180355
227.43698793304492
246.64411244254882
272.17902902992836
304.54006791830574
335.7721889579912
304.5400093964589
279.8962800731374
261.3598815145671
248.08912822833597
239.05355969214148
233.2040147101591
229.60205620962182
227.49075028286455
226.31137576893033
225.68267060099976
225.36237656168296
225.20635842060062
225.1340844715404
225.10354520073298
225.09523500645432
225.10354519831574
225.1340844650372
225.20635852484966
225.3623767908578
225.6826700475437
226.3113761327908
227.49075181769584
229.60205583908413
233.20401916265322
239.05355472830826
248.0891325383045
261.35987028997425
279.89628308012294
304.5400401660983
335.7721887912933
