# vtk DataFile Version 2.0
Unstructured Grid Example
ASCII
DATASET UNSTRUCTURED_GRID

POINTS 961 float
0.150000006 -0.00839745998 0
0.146666661 -0.00839745998 0
0.143333331 -0.00839745998 0
0.140000001 -0.00839745998 0
0.13666667 -0.00839745998 0
0.13333334 -0.00839745998 0
0.129999995 -0.00839745998 0
0.126666665 -0.00839745998 0
0.123333335 -0.00839745998 0
0.119999997 -0.00839745998 0
0.116666667 -0.00839745998 0
0.113333337 -0.00839745998 0
0.109999999 -0.00839745998 0
0.106666669 -0.00839745998 0
0.103333332 -0.00839745998 0
0.100000001 -0.00839745998 0
0.0966666639 -0.00839745998 0
0.0933333337 -0.00839745998 0
0.0900000036 -0.00839745998 0
0.086666666 -0.00839745998 0
0.0833333358 -0.00839745998 0
0.0799999982 -0.00839745998 0
0.0766666681 -0.00839745998 0
0.0733333305 -0.00839745998 0
0.0700000003 -0.00839745998 0
0.0666666701 -0.00839745998 0
0.0633333325 -0.00839745998 0
0.0599999987 -0.00839745998 0
0.0566666685 -0.00839745998 0
0.0533333346 -0.00839745998 0
0.0500000007 -0.00839745998 0
0.148333326 -0.0112842107 0
0.144999996 -0.0112842107 0
0.141666666 -0.0112842107 0
0.138333336 -0.0112842107 0
0.135000005 -0.0112842107 0
0.13166666 -0.0112842107 0
0.12833333 -0.0112842107 0
0.125 -0.0112842107 0
0.12166667 -0.0112842107 0
0.118333332 -0.0112842107 0
0.115000002 -0.0112842107 0
0.111666664 -0.0112842107 0
0.108333334 -0.0112842107 0
0.104999997 -0.0112842107 0
0.101666667 -0.0112842107 0
0.0983333364 -0.0112842107 0
0.0949999988 -0.0112842107 0
0.0916666687 -0.0112842107 0
0.088333331 -0.0112842107 0
0.0850000009 -0.0112842107 0
0.0816666633 -0.0112842107 0
0.0783333331 -0.0112842107 0
0.075000003 -0.0112842107 0
0.0716666654 -0.0112842107 0
0.0683333352 -0.0112842107 0
0.0649999976 -0.0112842107 0
0.0616666675 -0.0112842107 0
0.0583333336 -0.0112842107 0
0.0549999997 -0.0112842107 0
0.0516666658 -0.0112842107 0
0.0483333319 -0.0112842107 0
0.146666661 -0.0141709624 0
0.143333331 -0.0141709624 0
0.140000001 -0.0141709624 0
0.13666667 -0.0141709624 0
0.13333334 -0.0141709624 0
0.129999995 -0.0141709624 0
0.126666665 -0.0141709624 0
0.123333335 -0.0141709624 0
0.119999997 -0.0141709624 0
0.116666667 -0.0141709624 0
0.113333337 -0.0141709624 0
0.109999999 -0.0141709624 0
0.106666669 -0.0141709624 0
0.103333332 -0.0141709624 0
0.100000001 -0.0141709624 0
0.0966666639 -0.0141709624 0
0.0933333337 -0.0141709624 0
0.0900000036 -0.0141709624 0
0.086666666 -0.0141709624 0
0.0833333358 -0.0141709624 0
0.0799999982 -0.0141709624 0
0.0766666681 -0.0141709624 0
0.0733333305 -0.0141709624 0
0.0700000003 -0.0141709624 0
0.0666666701 -0.0141709624 0
0.0633333325 -0.0141709624 0
0.0599999987 -0.0141709624 0
0.0566666685 -0.0141709624 0
0.0533333346 -0.0141709624 0
0.0500000007 -0.0141709624 0
0.0466666669 -0.0141709624 0
0.144999996 -0.0170577131 0
0.141666666 -0.0170577131 0
0.138333336 -0.0170577131 0
0.135000005 -0.0170577131 0
0.13166666 -0.0170577131 0
0.12833333 -0.0170577131 0
0.125 -0.0170577131 0
0.12166667 -0.0170577131 0
0.118333332 -0.0170577131 0
0.115000002 -0.0170577131 0
0.111666664 -0.0170577131 0
0.108333334 -0.0170577131 0
0.104999997 -0.0170577131 0
0.101666667 -0.0170577131 0
0.0983333364 -0.0170577131 0
0.0949999988 -0.0170577131 0
0.0916666687 -0.0170577131 0
0.088333331 -0.0170577131 0
0.0850000009 -0.0170577131 0
0.0816666633 -0.0170577131 0
0.0783333331 -0.0170577131 0
0.075000003 -0.0170577131 0
0.0716666654 -0.0170577131 0
0.0683333352 -0.0170577131 0
0.0649999976 -0.0170577131 0
0.0616666675 -0.0170577131 0
0.0583333336 -0.0170577131 0
0.0549999997 -0.0170577131 0
0.0516666658 -0.0170577131 0
0.0483333319 -0.0170577131 0
0.0450000018 -0.0170577131 0
0.143333331 -0.0199444648 0
0.140000001 -0.0199444648 0
0.13666667 -0.0199444648 0
0.13333334 -0.0199444648 0
0.129999995 -0.0199444648 0
0.126666665 -0.0199444648 0
0.123333335 -0.0199444648 0
0.119999997 -0.0199444648 0
0.116666667 -0.0199444648 0
0.113333337 -0.0199444648 0
0.109999999 -0.0199444648 0
0.106666669 -0.0199444648 0
0.103333332 -0.0199444648 0
0.100000001 -0.0199444648 0
0.0966666639 -0.0199444648 0
0.0933333337 -0.0199444648 0
0.0900000036 -0.0199444648 0
0.086666666 -0.0199444648 0
0.0833333358 -0.0199444648 0
0.0799999982 -0.0199444648 0
0.0766666681 -0.0199444648 0
0.0733333305 -0.0199444648 0
0.0700000003 -0.0199444648 0
0.0666666701 -0.0199444648 0
0.0633333325 -0.0199444648 0
0.0599999987 -0.0199444648 0
0.0566666685 -0.0199444648 0
0.0533333346 -0.0199444648 0
0.0500000007 -0.0199444648 0
0.0466666669 -0.0199444648 0
0.043333333 -0.0199444648 0
0.141666666 -0.0228312165 0
0.138333336 -0.0228312165 0
0.135000005 -0.0228312165 0
0.13166666 -0.0228312165 0
0.12833333 -0.0228312165 0
0.125 -0.0228312165 0
0.12166667 -0.0228312165 0
0.118333332 -0.0228312165 0
0.115000002 -0.0228312165 0
0.111666664 -0.0228312165 0
0.108333334 -0.0228312165 0
0.104999997 -0.0228312165 0
0.101666667 -0.0228312165 0
0.0983333364 -0.0228312165 0
0.0949999988 -0.0228312165 0
0.0916666687 -0.0228312165 0
0.088333331 -0.0228312165 0
0.0850000009 -0.0228312165 0
0.0816666633 -0.0228312165 0
0.0783333331 -0.0228312165 0
0.075000003 -0.0228312165 0
0.0716666654 -0.0228312165 0
0.0683333352 -0.0228312165 0
0.0649999976 -0.0228312165 0
0.0616666675 -0.0228312165 0
0.0583333336 -0.0228312165 0
0.0549999997 -0.0228312165 0
0.0516666658 -0.0228312165 0
0.0483333319 -0.0228312165 0
0.0450000018 -0.0228312165 0
0.0416666679 -0.0228312165 0
0.140000001 -0.0257179681 0
0.13666667 -0.0257179681 0
0.13333334 -0.0257179681 0
0.129999995 -0.0257179681 0
0.126666665 -0.0257179681 0
0.123333335 -0.0257179681 0
0.119999997 -0.0257179681 0
0.116666667 -0.0257179681 0
0.113333337 -0.0257179681 0
0.109999999 -0.0257179681 0
0.106666669 -0.0257179681 0
0.103333332 -0.0257179681 0
0.100000001 -0.0257179681 0
0.0966666639 -0.0257179681 0
0.0933333337 -0.0257179681 0
0.0900000036 -0.0257179681 0
0.086666666 -0.0257179681 0
0.0833333358 -0.0257179681 0
0.0799999982 -0.0257179681 0
0.0766666681 -0.0257179681 0
0.0733333305 -0.0257179681 0
0.0700000003 -0.0257179681 0
0.0666666701 -0.0257179681 0
0.0633333325 -0.0257179681 0
0.0599999987 -0.0257179681 0
0.0566666685 -0.0257179681 0
0.0533333346 -0.0257179681 0
0.0500000007 -0.0257179681 0
0.0466666669 -0.0257179681 0
0.043333333 -0.0257179681 0
0.0399999991 -0.0257179681 0
0.138333336 -0.0286047198 0
0.135000005 -0.0286047198 0
0.13166666 -0.0286047198 0
0.12833333 -0.0286047198 0
0.125 -0.0286047198 0
0.12166667 -0.0286047198 0
0.118333332 -0.0286047198 0
0.115000002 -0.0286047198 0
0.111666664 -0.0286047198 0
0.108333334 -0.0286047198 0
0.104999997 -0.0286047198 0
0.101666667 -0.0286047198 0
0.0983333364 -0.0286047198 0
0.0949999988 -0.0286047198 0
0.0916666687 -0.0286047198 0
0.088333331 -0.0286047198 0
0.0850000009 -0.0286047198 0
0.0816666633 -0.0286047198 0
0.0783333331 -0.0286047198 0
0.075000003 -0.0286047198 0
0.0716666654 -0.0286047198 0
0.0683333352 -0.0286047198 0
0.0649999976 -0.0286047198 0
0.0616666675 -0.0286047198 0
0.0583333336 -0.0286047198 0
0.0549999997 -0.0286047198 0
0.0516666658 -0.0286047198 0
0.0483333319 -0.0286047198 0
0.0450000018 -0.0286047198 0
0.0416666679 -0.0286047198 0
0.038333334 -0.0286047198 0
0.13666667 -0.0314914696 0
0.13333334 -0.0314914696 0
0.129999995 -0.0314914696 0
0.126666665 -0.0314914696 0
0.123333335 -0.0314914696 0
0.119999997 -0.0314914696 0
0.116666667 -0.0314914696 0
0.113333337 -0.0314914696 0
0.109999999 -0.0314914696 0
0.106666669 -0.0314914696 0
0.103333332 -0.0314914696 0
0.100000001 -0.0314914696 0
0.0966666639 -0.0314914696 0
0.0933333337 -0.0314914696 0
0.0900000036 -0.0314914696 0
0.086666666 -0.0314914696 0
0.0833333358 -0.0314914696 0
0.0799999982 -0.0314914696 0
0.0766666681 -0.0314914696 0
0.0733333305 -0.0314914696 0
0.0700000003 -0.0314914696 0
0.0666666701 -0.0314914696 0
0.0633333325 -0.0314914696 0
0.0599999987 -0.0314914696 0
0.0566666685 -0.0314914696 0
0.0533333346 -0.0314914696 0
0.0500000007 -0.0314914696 0
0.0466666669 -0.0314914696 0
0.043333333 -0.0314914696 0
0.0399999991 -0.0314914696 0
0.0366666652 -0.0314914696 0
0.135000005 -0.0343782231 0
0.13166666 -0.0343782231 0
0.12833333 -0.0343782231 0
0.125 -0.0343782231 0
0.12166667 -0.0343782231 0
0.118333332 -0.0343782231 0
0.115000002 -0.0343782231 0
0.111666664 -0.0343782231 0
0.108333334 -0.0343782231 0
0.104999997 -0.0343782231 0
0.101666667 -0.0343782231 0
0.0983333364 -0.0343782231 0
0.0949999988 -0.0343782231 0
0.0916666687 -0.0343782231 0
0.088333331 -0.0343782231 0
0.0850000009 -0.0343782231 0
0.0816666633 -0.0343782231 0
0.0783333331 -0.0343782231 0
0.075000003 -0.0343782231 0
0.0716666654 -0.0343782231 0
0.0683333352 -0.0343782231 0
0.0649999976 -0.0343782231 0
0.0616666675 -0.0343782231 0
0.0583333336 -0.0343782231 0
0.0549999997 -0.0343782231 0
0.0516666658 -0.0343782231 0
0.0483333319 -0.0343782231 0
0.0450000018 -0.0343782231 0
0.0416666679 -0.0343782231 0
0.038333334 -0.0343782231 0
0.0350000001 -0.0343782231 0
0.13333334 -0.0372649729 0
0.129999995 -0.0372649729 0
0.126666665 -0.0372649729 0
0.123333335 -0.0372649729 0
0.119999997 -0.0372649729 0
0.116666667 -0.0372649729 0
0.113333337 -0.0372649729 0
0.109999999 -0.0372649729 0
0.106666669 -0.0372649729 0
0.103333332 -0.0372649729 0
0.100000001 -0.0372649729 0
0.0966666639 -0.0372649729 0
0.0933333337 -0.0372649729 0
0.0900000036 -0.0372649729 0
0.086666666 -0.0372649729 0
0.0833333358 -0.0372649729 0
0.0799999982 -0.0372649729 0
0.0766666681 -0.0372649729 0
0.0733333305 -0.0372649729 0
0.0700000003 -0.0372649729 0
0.0666666701 -0.0372649729 0
0.0633333325 -0.0372649729 0
0.0599999987 -0.0372649729 0
0.0566666685 -0.0372649729 0
0.0533333346 -0.0372649729 0
0.0500000007 -0.0372649729 0
0.0466666669 -0.0372649729 0
0.043333333 -0.0372649729 0
0.0399999991 -0.0372649729 0
0.0366666652 -0.0372649729 0
0.0333333351 -0.0372649729 0
0.13166666 -0.0401517227 0
0.12833333 -0.0401517227 0
0.125 -0.0401517227 0
0.12166667 -0.0401517227 0
0.118333332 -0.0401517227 0
0.115000002 -0.0401517227 0
0.111666664 -0.0401517227 0
[...]
POINT_DATA 961
SCALARS Temp float 1
LOOKUP_TABLE default
259.46529441613615
211.9144989459518
182.94311786550904
168.50252047066618
162.21840242849478
159.75632988019905
158.8650973032269
158.56121878283636
158.46228974378258
158.43124256779072
158.42178349045565
158.4189750723616
158.4181574002398
158.41792339918203
158.4178589780084
158.4178385097689
158.41783370059156
158.41783102668145
158.4178329800769
158.41783541833573
158.41784901954966
158.41792347420886
158.418305702383
158.4202658733762
158.4298637703055
158.4745079180862
158.6682648590065
159.43288459289283
162.0750139433083
169.71871740679424
188.04682442930263
211.9145168515513
169.98713220465922
147.29436526563396
136.5995406220955
132.13500296886858
130.4370739251955
129.83529208497905
129.63323343524212
129.5682101981532
129.5479885653921
129.54187440946086
129.54006794099453
129.53954495249178
129.5393962552212
129.5393528133762
129.53934271735218
129.53933999543136
129.53933976312953
129.539340143799
129.53934630035565
129.53938016572224
129.5395568313138
129.54047445891618
129.54500527075405
129.56636177219767
129.66094914171418
130.04625933605377
131.44674890705394
135.81838825583702
147.10675983191913
169.71873266916333
182.94309386199723
147.29436096299185
128.1381396501015
119.17706363516648
115.43738860077954
114.01018645355083
113.50183215173077
113.33026003623638
113.27478252761468
113.25745658107441
113.25220030717418
113.25064280265049
113.25019061365042
113.25006179725413
113.25002580457583
113.250015209329
113.25001178142129
113.25001256637475
113.2500150316918
113.2500293332932
113.25010534054287
113.25049602766178
113.25242953376333
113.26158650734477
113.30251917198599
113.4721865010207
114.10899505724635
116.21034069818953
122.11938303155245
135.81837876501805
162.07501664704904
168.5025012884453
136.59953962085277
119.1770708386705
110.91783064509299
107.43456810335543
106.0939373976714
105.61320274605876
105.4500939802805
105.39713503496498
105.38054259544002
105.37549394879662
105.37399512559362
105.37355932482224
105.37343439232313
105.37339990519183
105.37339023871749
105.37338805681826
105.37338815261087
105.37339365855615
105.3734237381936
105.37357766961794
105.37434108655248
105.37794998934062
105.3941193394895
105.46173674295873
105.72075241166604
106.60992488786864
109.28620485678027
116.21034736672122
131.44675872840065
159.43287812210795
162.21839614461223
132.13500598594678
115.43739365154998
107.43458221295643
104.03497894992212
102.72020146885882
102.24715854825257
102.08627794280457
102.03395240436087
102.01753724681845
102.01253788759162
102.01105253812668
102.01062040983324
102.01049704333543
102.01046214427144
102.01045240981766
102.01045041251825
102.01045184225956
102.01046293035053
102.0105203574066
102.01080291559087
102.01213296563124
102.01808334536697
102.04306196462277
102.14000769457601
102.48238052595043
103.56661834520602
106.60992242704901
114.10899352259531
130.04625657303967
158.6682714625037
159.75632339751365
130.4370861687153
114.01019892631838
106.09392670556633
102.72019817353124
101.41282297148383
100.9418463214839
100.78153355543628
100.72936277458578
100.71298895957537
100.70800080819583
100.70651847756297
100.7060870562844
100.70596386627685
100.70592919420541
100.70591977869586
100.70591786027425
100.70592116815789
100.70594132073536
100.70604043804485
100.7065050150632
100.70857505493964
100.71727106494373
100.75131170804929
100.87405410416399
101.27788011907231
102.48238026375176
105.72075302586002
113.47219106149312
129.66093454530042
158.4744992437872
158.8650940514388
129.83530025491265
113.50185103633575
105.61318842817273
102.24715506901238
100.94184588989305
100.4714128819815
100.31124289195911
100.25910906142154
100.24274490598968
100.237759278659
100.23627760219296
100.23584644689022
100.23572318726966
100.23568853543601
100.23567921052295
100.23567794738018
100.23568413391811
100.23571733132896
100.23587246048537
100.23656038722757
100.2394475401279
100.2508138104126
100.29244458323448
100.433476871652
100.8740537857696
102.14000649385815
105.46173415927403
113.30251620776474
129.56635903966475
158.4298732045234
158.5612243249047
129.63324360346425
113.3302292080102
105.45008223157365
102.08627621465344
100.78153435067593
100.31124278749728
100.15110819126492
100.0989830145459
100.08262112708628
100.07763605204201
100.07615451164713
100.07572338039766
100.07560016348236
100.07556558361274
100.075556404672
100.07555602320677
100.07556613753168
100.07561587388214
100.07583601261362
100.07675822149511
100.08040273047912
100.09391424936746
100.14075140101464
100.29244449350597
100.75131162930272
102.04306200220768
105.39411942802843
113.2615794352199
129.5449896108335
158.42025611328074
158.46228352517107
129.5682275957603
113.27474999483276
105.39712663289286
102.03395235137289
100.72936213297452
100.2591090986049
100.0989831979592
100.04686005728469
100.03049869099915
100.02551373414667
100.02403223647396
100.02360110042439
100.02347789657894
100.02344336760262
100.02343445693329
100.02343522130344
100.02345008080559
100.0235181693931
100.023803396776
100.02493375151376
100.0291651280423
100.04410700837447
100.09391430800963
100.2508137558084
100.71727083949455
102.01808313518846
105.37794810155076
113.25243124909906
129.54047852942875
158.41832198543494
158.4312553093636
129.54793032290138
113.25744266490257
105.38054167442564
102.01754056477499
100.71298905910322
100.24274527227712
100.08262115218061
100.03049868515524
100.01413740128771
100.00915248638
100.0076709927549
100.0072398641843
100.0071166806942
100.00708222246489
100.0070736372609
100.0070757264462
100.00709562293716
100.00718133297272
100.00752229268517
100.00880893332501
100.01342207829077
100.02916510797665
100.08040270159131
100.23944754951819
100.70857504848883
102.01213307580572
105.37433555215286
113.25048758516587
129.53954381474276
158.41791344463857
158.42183279007327
129.54183420836537
113.2521969366289
105.37549725279736
102.01253735802356
100.7080012565351
100.23775978978667
100.07763605021681
100.0255137561021
100.00915248507025
100.00416758059508
100.00268608713685
100.00225496563586
100.00213180307608
100.00209743616018
100.00208921265954
100.00209265464252
100.00211721802533
100.00221752144549
100.00259916956595
100.00398528806558
100.008808939749
100.0249337587132
100.0767581928836
100.23656030558273
100.70650484168274
102.01080198549079
105.37357723463452
113.25010787680819
129.53938783825765
158.41783782740117
158.41893220341217
129.54005168837486
113.25064700255149
105.37400214026414
102.01105175446277
100.7065189769156
100.23627745987528
100.0761545261384
100.02403219539212
100.00767099303226
100.00268608999244
100.0012045978945
100.00077348448909
100.00065034747743
100.00061607891514
100.00060821284683
100.00061286744332
100.00064118137885
100.00075187772622
100.0011589315547
100.00259917330848
100.00752229763255
100.02380338665374
100.07583605927762
100.23587259562693
100.70604106727043
102.01051954217691
105.37342192361588
113.25002999827025
129.53934657719614
158.41784819910927
158.41814703272325
129.53955195741605
113.25020418505038
105.37355750131162
102.01062102343995
100.70608834864326
100.23584633522111
100.07572348140951
100.02360107357944
100.00723986991633
100.00225496383165
100.00077348370743
100.00034238283845
100.00021927752975
100.00018510695047
100.00017755496894
100.00018316092552
100.00021408790722
100.00033116316801
100.00075187635478
100.00221752067482
100.00718133975988
100.02351813812628
100.07561585681304
100.23571727737877
100.70594105084909
102.01046261940995
105.37339309568247
113.25001830316555
129.53932087878806
158.4178339465102
158.41791365852592
129.53940113462932
113.25007682436173
105.37343080394626
102.01049732533248
100.70596320277339
100.23572315482292
100.07560009182508
100.02347788241082
100.00711669087836
100.00213180003122
100.00065034711012
100.00021927743063
100.00009621953488
100.00006214607951
100.00005484444581
100.00006110618939
100.00009361617066
100.00021408775267
100.00064118172871
100.00211721728449
100.00709562655398
100.02345007778999
100.0755661927088
100.23568432625562
100.7059208762427
102.01045108239764
105.37338647586505
113.25001178320352
129.53934255054196
158.41783137779052
158.4178608099644
129.53936833179628
113.25001838591962
105.37339898087329
102.01046470587407
100.7059288466005
100.23568884885941
100.07556554331327
100.02344336402606
100.00708222068154
100.00209743555237
100.00061607940165
100.00018510684004
100.00006214612719
100.00002818881666
100.00002108361151
100.00002775294611
100.0000611061333
100.0001831607049
100.00061286685447
100.00209265494523
100.00707572381673
100.0234351950711
100.07555600720394
100.23567784477935
100.7059177494127
102.01045018753969
105.37338773171973
113.25000426334365
129.53933728277295
158.41782832054804
158.41783514697948
129.53935711935793
113.25000531625943
105.37338999359018
102.01045062477696
100.7059196181111
100.23567897754954
100.0755564026204
100.0234344709853
100.00707363292236
100.00208921271687
100.00060821171162
100.00017755495696
100.00005484436161
100.00002108360981
100.00001416451413
100.00002108362466
100.0000548443803
100.0001775552339
100.00060821221885
100.00208921166636
100.00707364218408
100.02343445572517
100.07555646876692
100.23567910084522
100.70591946813441
102.01045211070257
105.37338859422091
113.25001883753276
129.53933626679085
158.41784279996466
158.4178445412389
129.539317308099
113.25001377957192
105.37339399971528
102.01044956089822
100.70591866731115
100.2356778330548
100.07555606296357
100.02343519411566
100.00707573024339
100.0020926580096
100.00061286667736
100.00018316119336
100.00006110614184
100.00002775295941
100.00002108363753
100.00002818884361
100.00006214601991
100.00018510692666
100.0006160785143
100.00209743352563
100.00708222014745
100.02344334348648
100.07556554229714
100.23568853093262
100.70592918286836
102.0104623866057
105.37339470645833
113.2500243063427
129.53934196580775
158.41785127724665
158.41785847022078
129.5393240642995
113.25001791811006
105.37338349605943
102.01045151804806
100.70592044076677
100.23568409617475
100.07556623164436
100.02345004705526
100.00709563008641
100.00211721565162
100.00064118081549
100.00021408769477
100.00009361612227
100.00006110621713
100.00005484446528
100.00006214608788
100.00009621961438
100.00021927757027
100.00065034673273
100.0021318025521
100.00711668517265
100.02347790191881
100.07560013189854
100.2357231134588
100.70596372591599
102.01049630038717
105.37343467065864
113.25005724295994
129.53938937751602
158.41792350702846
158.41780721884908
129.53933456447842
113.2500261577428
105.37338815644952
102.01046344969373
100.70594043988446
100.23571726164592
100.07561579823695
100.0235181429188
100.00718134502998
100.00221751860371
100.00075187755353
100.00033116304864
100.0002140878506
100.0001831609097
100.00017755495836
100.00018510693097
100.00021927761574
100.00034238268239
100.00077348352241
100.00225496505588
100.00723986856534
100.0236010905317
100.0757234275233
100.23584659164014
100.7060877192744
102.01061955795502
105.37355990050973
113.2501901170923
129.5395436123828
158.4181643116285
158.4178327072121
129.53935735145058
113.2500210706981
105.3734219778345
102.01051804981087
100.70604038345604
100.23587272030039
100.07583597106415
100.02380340034692
100.00752229299246
100.00259917048635
100.00115893136804
100.00075187753107
100.00064118147124
100.0006128676274
100.00060821286681
100.00061607892316
100.00065034753115
100.00077348431137
100.0012045985938
100.00268608816191
100.00767099888229
100.0240322058081
100.07615449666156
100.23627754787654
100.7065182132248
102.01105230541124
105.3739907560527
113.25063764205544
129.54005835831578
158.41897333069835
158.4178447279416
129.53939420769262
113.25009389909218
105.37357840167245
102.0108003287076
100.70650484905359
100.23656014951058
100.07675821509564
100.0249337772215
100.00880893346114
100.00398529219203
100.00259916966698
100.00221752129983
100.00211721783919
100.00209265447795
100.00208921271003
100.00209743654023
100.0021318028744
100.00225496569014
100.00268608752924
100.00416757995936
100.0091524894983
100.02551373234209
100.07763610642327
100.23775945611766
100.70800043796021
102.01253788446017
105.37549151691574
113.2521992560178
129.54187312240117
158.42178022707955
158.41791282587158
129.53951885800709
113.2504868267087
105.37433205393162
102.01213147608804
100.70857546964915
100.2394473078849
100.08040274810392
100.02916509531188
100.01342206995884
100.00880893244454
100.00752229161495
100.0071813332527
100.00709562503633
100.00707572669585
100.00707363712858
100.00708222262287
100.00711668009517
100.00723986441899
100.00767099229691
100.00915248857135
100.01413740237415
100.0304986680965
100.08262115519443
100.24274495315537
100.7129893333199
102.01753671048075
105.38054171575169
113.25746118672576
129.5479963243761
158.4312588059101
158.41834413733304
129.5404675471906
113.25244248792019
105.3779480276144
102.01808468495325
100.71727092883184
100.25081402592257
100.0939144542835
100.04410704225069
100.02916518372774
100.02493379608183
100.02380343556868
100.023518206402
100.02345011774793
100.02343526054723
100.0234344993032
100.02344340456608
100.0234779366054
100.02360113993751
100.02403227372136
100.02551377394039
100.03049871555477
100.04686009223597
100.0989830656819
100.25910875370352
100.72936230177454
102.03395059106242
105.39713024859476
113.27477669009653
129.56818858518434
158.46227477810177
158.4202506915388
129.54500879910825
113.2615805895766
105.39411919398181
102.04306449648271
100.75131152586911
100.29244489407994
100.14075153780625
100.0939143622832
100.08040285116226
100.076758337935
100.07583613780399
100.0756160186934
100.07556626429813
100.0755561459891
100.07555652944103
100.07556570281835
100.07560028838783
100.07572350577806
100.07615464321259
100.07763617222089
100.08262124268246
100.09898312913597
100.15110817636067
100.31124300859186
100.78153315999602
102.08627687383476
105.4500912739535
113.33025829413059
129.63322970394364
158.56121626678015
158.42985837174473
129.56637554825318
113.30251295209843
105.46173647219554
102.14000614358112
100.87405439403977
100.43347729643173
100.29244473005241
100.25081403872984
100.23944777990201
100.23656057748474
100.23587263519363
100.23571750131369
100.23568432538464
100.23567816557403
100.23567938232142
100.2356887370689
100.23572338326622
100.2358466287177
100.2362778050564
100.23775946850503
100.24274510177004
100.25910919924121
100.31124306340625
100.47141339174132
100.94184612137359
102.24715826456602
105.61320277732773
113.50183008704396
129.8352885235233
158.8650960842585
158.47450493776674
129.6609218718784
113.47218349344321
105.72075587978097
102.48237876876443
101.2778805379945
100.87405411497532
100.75131168080367
100.71727104084643
100.70857500543936
100.70650504162036
100.7060406209268
100.7059413601312
100.70592117457763
100.7059178750024
100.70591976633669
100.7059292216313
100.70596389812428
100.70608713551964
100.7065184753349
100.70800084943836
100.71298902223718
100.72936274117279
100.7815337048472
100.94184615369757
101.412823859172
102.72020306071367
106.09394043319963
114.01019060319436
130.43707420905312
159.75632460864676
158.6682715926909
130.04623620013697
114.10899142204049
106.6099177242074
103.56661731219508
102.48237956758763
102.14000610081413
102.0430606543433
102.01808231353536
102.01213161805359
102.01080146813973
102.01051882235825
102.01046156074368
102.0104506487406
102.01044892267691
102.01045113962017
102.01046081803601
102.01049562418699
102.01061910775535
102.01105119390498
102.01253653552068
102.01753575517665
102.03395125545646
102.08627679884647
102.24715718821007
102.72020168032684
104.03498362996639
107.43456999316014
115.43738267486067
132.1349990778683
162.2184070505959
159.43288415367374
131.4467636797214
116.21036566108646
109.28621063559049
106.60993305110061
105.72075942728648
105.46174334114171
105.39412575062383
105.37795617785231
105.37434780869143
105.3735851994613
105.37343047574079
105.37340019778551
105.37339468964524
105.3733945880886
105.37339691561075
105.37340659928769
105.37344134718403
105.37356580603698
105.37400187448466
105.37550076851046
105.38054904219415
105.39714160106503
105.45010045558357
105.61320976485759
106.0939459513641
107.43457737492766
110.91782466151277
119.17705375311543
136.59951585824737
168.502502710341
162.0750227355398
135.81840310626225
122.11939342596185
116.21035433112714
114.1090078882893
113.47219726007779
113.3025306549362
113.26159934103255
113.25244129246386
113.2505073413388
113.25011586197758
113.25004070621887
113.25002715363597
113.25002361573165
113.25002377837663
113.25002685722706
113.25003709415682
113.25007340046153
113.25020221941894
113.25065429925077
113.25221125560141
113.25746894889441
113.27479425569575
113.33027088877833
113.50184437061414
114.01019837767807
115.43739096915672
119.177062123578
128.1381297007332
147.29434863691733
182.9431076304312
169.7187325811917
147.1067807825792
135.81839226116497
131.4467581182267
130.04626738692687
129.66095633432488
129.5663684138782
129.54501105026597
129.5404825960229
129.53956672320902
129.53938771122853
129.53935329648613
129.53934696090428
129.53934725366744
129.5393474244331
129.53935027328203
129.53936106989153
129.53940302773324
129.53955270615046
129.54007570678752
129.54188148354385
129.5479954687831
129.56821773402692
129.63324234707258
129.8353016508941
130.43708144304316
132.13500151536982
136.59953386422856
147.29434981587414
169.98711952468832
211.91447129701663
188.04683883192314
169.71871319346658
162.0750162945279
159.43288722303453
158.66826331419068
158.47450816839077
158.42986546393126
158.4202684560451
158.41830716402814
158.41792065723817
158.41784903613745
158.41783640275722
158.4178334957576
158.4178325000284
158.41783445665465
158.41783923307187
158.41785846991115
158.4179247347569
158.41815774203346
158.41897456244843
158.42178523103888
158.43124372170482
158.46229094537102
158.56121992174207
158.8650937003396
159.75632331261144
162.21839803633878
168.50250580340978
182.94309442032753
211.91445585142247
259.4649605552354
