# vtk DataFile Version 2.0
Unstructured Grid Example
ASCII
DATASET UNSTRUCTURED_GRID

POINTS 961 float
0.150000006 -0.00839745998 0
0.146666661 -0.00839745998 0
0.143333331 -0.00839745998 0
0.140000001 -0.00839745998 0
0.13666667 -0.00839745998 0
0.13333334 -0.00839745998 0
0.129999995 -0.00839745998 0
0.126666665 -0.00839745998 0
0.123333335 -0.00839745998 0
0.119999997 -0.00839745998 0
0.116666667 -0.00839745998 0
0.113333337 -0.00839745998 0
0.109999999 -0.00839745998 0
0.106666669 -0.00839745998 0
0.103333332 -0.00839745998 0
0.100000001 -0.00839745998 0
0.0966666639 -0.00839745998 0
0.0933333337 -0.00839745998 0
0.0900000036 -0.00839745998 0
0.086666666 -0.00839745998 0
0.0833333358 -0.00839745998 0
0.0799999982 -0.00839745998 0
0.0766666681 -0.00839745998 0
0.0733333305 -0.00839745998 0
0.0700000003 -0.00839745998 0
0.0666666701 -0.00839745998 0
0.0633333325 -0.00839745998 0
0.0599999987 -0.00839745998 0
0.0566666685 -0.00839745998 0
0.0533333346 -0.00839745998 0
0.0500000007 -0.00839745998 0
0.148333326 -0.0112842107 0
0.144999996 -0.0112842107 0
0.141666666 -0.0112842107 0
0.138333336 -0.0112842107 0
0.135000005 -0.0112842107 0
0.13166666 -0.0112842107 0
0.12833333 -0.0112842107 0
0.125 -0.0112842107 0
0.12166667 -0.0112842107 0
0.118333332 -0.0112842107 0
0.115000002 -0.0112842107 0
0.111666664 -0.0112842107 0
0.108333334 -0.0112842107 0
0.104999997 -0.0112842107 0
0.101666667 -0.0112842107 0
0.0983333364 -0.0112842107 0
0.0949999988 -0.0112842107 0
0.0916666687 -0.0112842107 0
0.088333331 -0.0112842107 0
0.0850000009 -0.0112842107 0
0.0816666633 -0.0112842107 0
0.0783333331 -0.0112842107 0
0.075000003 -0.0112842107 0
0.0716666654 -0.0112842107 0
0.0683333352 -0.0112842107 0
0.0649999976 -0.0112842107 0
0.0616666675 -0.0112842107 0
0.0583333336 -0.0112842107 0
0.0549999997 -0.0112842107 0
0.0516666658 -0.0112842107 0
0.0483333319 -0.0112842107 0
0.146666661 -0.0141709624 0
0.143333331 -0.0141709624 0
0.140000001 -0.0141709624 0
0.13666667 -0.0141709624 0
0.13333334 -0.0141709624 0
0.129999995 -0.0141709624 0
0.126666665 -0.0141709624 0
0.123333335 -0.0141709624 0
0.119999997 -0.0141709624 0
0.116666667 -0.0141709624 0
0.113333337 -0.0141709624 0
0.109999999 -0.0141709624 0
0.106666669 -0.0141709624 0
0.103333332 -0.0141709624 0
0.100000001 -0.0141709624 0
0.0966666639 -0.0141709624 0
0.0933333337 -0.0141709624 0
0.0900000036 -0.0141709624 0
0.086666666 -0.0141709624 0
0.0833333358 -0.0141709624 0
0.0799999982 -0.0141709624 0
0.0766666681 -0.0141709624 0
0.0733333305 -0.0141709624 0
0.0700000003 -0.0141709624 0
0.0666666701 -0.0141709624 0
0.0633333325 -0.0141709624 0
0.0599999987 -0.0141709624 0
0.0566666685 -0.0141709624 0
0.0533333346 -0.0141709624 0
0.0500000007 -0.0141709624 0
0.0466666669 -0.0141709624 0
0.144999996 -0.0170577131 0
0.141666666 -0.0170577131 0
0.138333336 -0.0170577131 0
0.135000005 -0.0170577131 0
0.13166666 -0.0170577131 0
0.12833333 -0.0170577131 0
0.125 -0.0170577131 0
0.12166667 -0.0170577131 0
0.118333332 -0.0170577131 0
0.115000002 -0.0170577131 0
0.111666664 -0.0170577131 0
0.108333334 -0.0170577131 0
0.104999997 -0.0170577131 0
0.101666667 -0.0170577131 0
0.0983333364 -0.0170577131 0
0.0949999988 -0.0170577131 0
0.0916666687 -0.0170577131 0
0.088333331 -0.0170577131 0
0.0850000009 -0.0170577131 0
0.0816666633 -0.0170577131 0
0.0783333331 -0.0170577131 0
0.075000003 -0.0170577131 0
0.0716666654 -0.0170577131 0
0.0683333352 -0.0170577131 0
0.0649999976 -0.0170577131 0
0.0616666675 -0.0170577131 0
0.0583333336 -0.0170577131 0
0.0549999997 -0.0170577131 0
0.0516666658 -0.0170577131 0
0.0483333319 -0.0170577131 0
0.0450000018 -0.0170577131 0
0.143333331 -0.0199444648 0
0.140000001 -0.0199444648 0
0.13666667 -0.0199444648 0
0.13333334 -0.0199444648 0
0.129999995 -0.0199444648 0
0.126666665 -0.0199444648 0
0.123333335 -0.0199444648 0
0.119999997 -0.0199444648 0
0.116666667 -0.0199444648 0
0.113333337 -0.0199444648 0
0.109999999 -0.0199444648 0
0.106666669 -0.0199444648 0
0.103333332 -0.0199444648 0
0.100000001 -0.0199444648 0
0.0966666639 -0.0199444648 0
0.0933333337 -0.0199444648 0
0.0900000036 -0.0199444648 0
0.086666666 -0.0199444648 0
0.0833333358 -0.0199444648 0
0.0799999982 -0.0199444648 0
0.0766666681 -0.0199444648 0
0.0733333305 -0.0199444648 0
0.0700000003 -0.0199444648 0
0.0666666701 -0.0199444648 0
0.0633333325 -0.0199444648 0
0.0599999987 -0.0199444648 0
0.0566666685 -0.0199444648 0
0.0533333346 -0.0199444648 0
0.0500000007 -0.0199444648 0
0.0466666669 -0.0199444648 0
0.043333333 -0.0199444648 0
0.141666666 -0.0228312165 0
0.138333336 -0.0228312165 0
0.135000005 -0.0228312165 0
0.13166666 -0.0228312165 0
0.12833333 -0.0228312165 0
0.125 -0.0228312165 0
0.12166667 -0.0228312165 0
0.118333332 -0.0228312165 0
0.115000002 -0.0228312165 0
0.111666664 -0.0228312165 0
0.108333334 -0.0228312165 0
0.104999997 -0.0228312165 0
0.101666667 -0.0228312165 0
0.0983333364 -0.0228312165 0
0.0949999988 -0.0228312165 0
0.0916666687 -0.0228312165 0
0.088333331 -0.0228312165 0
0.0850000009 -0.0228312165 0
0.0816666633 -0.0228312165 0
0.0783333331 -0.0228312165 0
0.075000003 -0.0228312165 0
0.0716666654 -0.0228312165 0
0.0683333352 -0.0228312165 0
0.0649999976 -0.0228312165 0
0.0616666675 -0.0228312165 0
0.0583333336 -0.0228312165 0
0.0549999997 -0.0228312165 0
0.0516666658 -0.0228312165 0
0.0483333319 -0.0228312165 0
0.0450000018 -0.0228312165 0
0.0416666679 -0.0228312165 0
0.140000001 -0.0257179681 0
0.13666667 -0.0257179681 0
0.13333334 -0.0257179681 0
0.129999995 -0.0257179681 0
0.126666665 -0.0257179681 0
0.123333335 -0.0257179681 0
0.119999997 -0.0257179681 0
0.116666667 -0.0257179681 0
0.113333337 -0.0257179681 0
0.109999999 -0.0257179681 0
0.106666669 -0.0257179681 0
0.103333332 -0.0257179681 0
0.100000001 -0.0257179681 0
0.0966666639 -0.0257179681 0
0.0933333337 -0.0257179681 0
0.0900000036 -0.0257179681 0
0.086666666 -0.0257179681 0
0.0833333358 -0.0257179681 0
0.0799999982 -0.0257179681 0
0.0766666681 -0.0257179681 0
0.0733333305 -0.0257179681 0
0.0700000003 -0.0257179681 0
0.0666666701 -0.0257179681 0
0.0633333325 -0.0257179681 0
0.0599999987 -0.0257179681 0
0.0566666685 -0.0257179681 0
0.0533333346 -0.0257179681 0
0.0500000007 -0.0257179681 0
0.0466666669 -0.0257179681 0
0.043333333 -0.0257179681 0
0.0399999991 -0.0257179681 0
0.138333336 -0.0286047198 0
0.135000005 -0.0286047198 0
0.13166666 -0.0286047198 0
0.12833333 -0.0286047198 0
0.125 -0.0286047198 0
0.12166667 -0.0286047198 0
0.118333332 -0.0286047198 0
0.115000002 -0.0286047198 0
0.111666664 -0.0286047198 0
0.108333334 -0.0286047198 0
0.104999997 -0.0286047198 0
0.101666667 -0.0286047198 0
0.0983333364 -0.0286047198 0
0.0949999988 -0.0286047198 0
0.0916666687 -0.0286047198 0
0.088333331 -0.0286047198 0
0.0850000009 -0.0286047198 0
0.0816666633 -0.0286047198 0
0.0783333331 -0.0286047198 0
0.075000003 -0.0286047198 0
0.0716666654 -0.0286047198 0
0.0683333352 -0.0286047198 0
0.0649999976 -0.0286047198 0
0.0616666675 -0.0286047198 0
0.0583333336 -0.0286047198 0
0.0549999997 -0.0286047198 0
0.0516666658 -0.0286047198 0
0.0483333319 -0.0286047198 0
0.0450000018 -0.0286047198 0
0.0416666679 -0.0286047198 0
0.038333334 -0.0286047198 0
0.13666667 -0.0314914696 0
0.13333334 -0.0314914696 0
0.129999995 -0.0314914696 0
0.126666665 -0.0314914696 0
0.123333335 -0.0314914696 0
0.119999997 -0.0314914696 0
0.116666667 -0.0314914696 0
0.113333337 -0.0314914696 0
0.109999999 -0.0314914696 0
0.106666669 -0.0314914696 0
0.103333332 -0.0314914696 0
0.100000001 -0.0314914696 0
0.0966666639 -0.0314914696 0
0.0933333337 -0.0314914696 0
0.0900000036 -0.0314914696 0
0.086666666 -0.0314914696 0
0.0833333358 -0.0314914696 0
0.0799999982 -0.0314914696 0
0.0766666681 -0.0314914696 0
0.0733333305 -0.0314914696 0
0.0700000003 -0.0314914696 0
0.0666666701 -0.0314914696 0
0.0633333325 -0.0314914696 0
0.0599999987 -0.0314914696 0
0.0566666685 -0.0314914696 0
0.0533333346 -0.0314914696 0
0.0500000007 -0.0314914696 0
0.0466666669 -0.0314914696 0
0.043333333 -0.0314914696 0
0.0399999991 -0.0314914696 0
0.0366666652 -0.0314914696 0
0.135000005 -0.0343782231 0
0.13166666 -0.0343782231 0
0.12833333 -0.0343782231 0
0.125 -0.0343782231 0
0.12166667 -0.0343782231 0
0.118333332 -0.0343782231 0
0.115000002 -0.0343782231 0
0.111666664 -0.0343782231 0
0.108333334 -0.0343782231 0
0.104999997 -0.0343782231 0
0.101666667 -0.0343782231 0
0.0983333364 -0.0343782231 0
0.0949999988 -0.0343782231 0
0.0916666687 -0.0343782231 0
0.088333331 -0.0343782231 0
0.0850000009 -0.0343782231 0
0.0816666633 -0.0343782231 0
0.0783333331 -0.0343782231 0
0.075000003 -0.0343782231 0
0.0716666654 -0.0343782231 0
0.0683333352 -0.0343782231 0
0.0649999976 -0.0343782231 0
0.0616666675 -0.0343782231 0
0.0583333336 -0.0343782231 0
0.0549999997 -0.0343782231 0
0.0516666658 -0.0343782231 0
0.0483333319 -0.0343782231 0
0.0450000018 -0.0343782231 0
0.0416666679 -0.0343782231 0
0.038333334 -0.0343782231 0
0.0350000001 -0.0343782231 0
0.13333334 -0.0372649729 0
0.129999995 -0.0372649729 0
0.126666665 -0.0372649729 0
0.123333335 -0.0372649729 0
0.119999997 -0.0372649729 0
0.116666667 -0.0372649729 0
0.113333337 -0.0372649729 0
0.109999999 -0.0372649729 0
0.106666669 -0.0372649729 0
0.103333332 -0.0372649729 0
0.100000001 -0.0372649729 0
0.0966666639 -0.0372649729 0
0.0933333337 -0.0372649729 0
0.0900000036 -0.0372649729 0
0.086666666 -0.0372649729 0
0.0833333358 -0.0372649729 0
0.0799999982 -0.0372649729 0
0.0766666681 -0.0372649729 0
0.0733333305 -0.0372649729 0
0.0700000003 -0.0372649729 0
0.0666666701 -0.0372649729 0
0.0633333325 -0.0372649729 0
0.0599999987 -0.0372649729 0
0.0566666685 -0.0372649729 0
0.0533333346 -0.0372649729 0
0.0500000007 -0.0372649729 0
0.0466666669 -0.0372649729 0
0.043333333 -0.0372649729 0
0.0399999991 -0.0372649729 0
0.0366666652 -0.0372649729 0
0.0333333351 -0.0372649729 0
0.13166666 -0.0401517227 0
0.12833333 -0.0401517227 0
0.125 -0.0401517227 0
0.12166667 -0.0401517227 0
0.118333332 -0.0401517227 0
0.115000002 -0.0401517227 0
0.111666664 -0.0401517227 0
[...]
POINT_DATA 961
SCALARS Temp float 1
LOOKUP_TABLE default
279.03122604238416
230.27379767411358
198.26405665072352
180.54014508598402
171.859603365801
168.02331898747238
166.46408248775884
165.87162479063002
165.6584077847056
165.58499624933455
165.5606282527197
165.55278758206427
165.55032905944742
165.5495752636853
165.54934996786918
165.5492811631434
165.54926199021938
165.54925560471992
165.54925779434706
165.54926847372428
165.54932405695274
165.5495976329346
165.55088344410677
165.55671612341965
165.58176701184485
165.68244580404124
166.05417269287094
167.28610715842572
170.85363982095896
179.65586508087512
198.3050982628065
230.2738154241074
186.53367459595182
160.56959031242732
146.8993696366995
140.46964447057243
137.7170562244371
136.62543049984012
136.21842186606563
136.0740933532517
136.02498343257062
136.00883990545213
136.00368529517044
136.0020803078067
136.0015913724832
136.00144361941778
136.00140197941735
136.00139009983639
136.00138786507924
136.00139166724853
136.00141790254943
136.00154874500438
136.00217153399373
136.00503695528127
136.0175464442017
136.06895771127483
136.26473424827822
136.9419191147924
139.01985973152054
144.53783156432598
156.96267753163713
179.65588146912057
198.2640282014528
160.56958316656505
138.48184007355454
126.98516617417742
121.60166871469349
119.29701307800578
118.38069500856355
118.03776571856665
117.91566093742297
117.87394733847168
117.86018639551685
117.85577834676191
117.85440174192571
117.85398143010974
117.85385560361718
117.85381802136662
117.85380690492639
117.85380717521198
117.85381805750757
117.85387580690131
117.8541539551135
117.8554383003632
117.86109957495313
117.8846944884281
117.97643144292782
118.30367278758374
119.3539939426393
122.32406924096868
129.57506053793242
144.5378219338134
170.85364382795285
180.54012005149036
146.89936484530537
126.98517323845904
116.51264813560547
111.56151965261476
109.42358298329391
108.56717639965682
108.24465559615024
108.12922450820926
108.08962516305385
108.07651468671774
108.07230336541417
108.07098518671197
108.07058120492502
108.07046072828345
108.07042522717622
108.07041607166195
108.07041770995644
108.07044091583462
108.07055617320952
108.07109013042809
108.07345831583797
108.08340567923928
108.12260817469878
108.2655600260052
108.74037456622278
110.15338377638487
113.86177230228914
122.32407746474166
139.01987024115172
167.28610003618468
171.85959180875696
140.46964503416476
121.60167269400308
111.56153898283543
106.7734490696149
104.69281129280648
103.85548966822209
103.53907364545387
103.42553690044261
103.38651130694637
103.37357149315369
103.36941002309551
103.36810625465581
103.36770702939694
103.36758695296783
103.3675516957643
103.36754363699761
103.36755012639091
103.36759452928125
103.36780358343688
103.36873167129478
103.37264629492437
103.38820915275866
103.44586342403983
103.64243753896403
104.25165004370571
105.94836766334674
110.15338061555781
119.35399191795044
136.9419162186141
166.05417938171416
168.02330891443378
137.71707020649436
119.29702896065868
109.42356899972505
104.69280679399292
102.63075313643331
101.79921387910372
101.48454404250886
101.37152366936691
101.33264750503464
101.31975071832763
101.31560147553527
101.31430098974049
101.31390273520024
101.31378318774557
101.31374865869988
101.31374184838087
101.31375576724719
101.3138327429065
101.31417705612837
101.31563315461646
101.32145287182492
101.34326061186658
101.4191341055171
101.66199066179982
102.37154918961232
104.25164960111407
108.7403752731142
118.30367799891253
136.26471847449127
165.68243709272528
166.46408026376983
136.62543971505912
118.38071734876046
108.56715852532385
103.85548491940287
101.79921322267876
100.96936556833765
100.65518144936179
100.54229765437523
100.50345965371045
100.4905734595667
100.48642713002704
100.48512759284279
100.48472939874343
100.48460999160058
100.48457600014802
100.48457175721734
100.48459650279597
100.48471800516248
100.48523443969016
100.48730584859211
100.49513384141044
100.52280610009039
100.61371014357358
100.88979560083718
101.66199011192236
103.64243571688812
108.26555649101459
117.97642827686103
136.06895494774946
165.5817764450524
165.87163133098184
136.21843428379384
118.03773033899249
108.24464099938905
103.53907141827342
101.4845453673011
100.65518124568226
100.34112915881744
100.22828063101655
100.18945231018624
100.17656865497179
100.1724230018037
100.1711236408513
100.17072557464648
100.17060641643783
100.17057316296831
100.17057238524661
100.17061121971425
100.17078653709248
100.17149387716609
100.17418454158326
100.1838184295322
100.21614472704199
100.31748512555583
100.61370997561974
101.41913394437756
103.445863508323
108.12260835868224
117.8846860497287
136.01752995025348
165.55670638096973
165.65840371877067
136.07411357596627
117.91562481320757
108.12921400558513
103.42553681996117
101.3715224990841
100.54229767183547
100.22828099549677
100.11544152711447
100.07661560379
100.06373254873111
100.05958708060209
100.05828774424724
100.05788974399702
100.05777083308668
100.05773866511508
100.0577421991057
100.05779732415917
100.05802988297737
100.05892147767798
100.06214804814745
100.0731674376154
100.10863353616877
100.21614484353444
100.52280600876222
101.34326026279687
103.38820880930552
108.08340335019643
117.86110174753367
136.0050415322046
165.55090042683085
165.58501356980665
136.02492338672633
117.87393166437174
108.08962392821182
103.38651590176315
101.33264758263938
100.50346029247625
100.18945234414973
100.07661558898732
100.03779017021573
100.02490729760841
100.02076186385953
100.01946255866338
100.0190646457148
100.01894604822667
100.01891516275172
100.01892348506395
100.01899525690006
100.01928102483598
100.02032679020876
100.02395249843592
100.03588349782696
100.0731673920406
100.18381837563835
100.49513385509007
101.3214528536331
103.37264644848798
108.07345107252694
117.85542859442967
136.00215758240978
165.549587801597
165.5606797525407
136.0087976203292
117.86018180256146
108.07651848928766
103.3735703236813
101.31975137496401
100.49057437207713
100.1765686571729
100.06373259962392
100.02490729517942
100.01202446805252
100.00787904292267
100.006579769242
100.00618195204099
100.00606372969919
100.00603421793296
100.0060472634561
100.00613401229093
100.0064629651037
100.00762055489342
100.01150314531895
100.02395251520788
100.06214806406832
100.17418448179136
100.48730569620109
101.31563287130886
103.36873042448931
108.07108955164304
117.85415693165122
136.0015565597296
165.54931211354224
165.5527408923867
136.00366589629985
117.85578199304192
108.07231178458176
103.3694087314484
101.31560227672064
100.48642685406067
100.17242303964547
100.05958698957924
100.02076186486775
100.00787905077057
100.00373363677888
100.00243439992586
100.00203669425724
100.00191886425453
100.00189066842626
100.00190783823078
100.00200641349726
100.00236596175468
100.00359413208945
100.00762056494077
100.02032680224005
100.05892145608759
100.17149397693254
100.48523470420093
101.3141780994413
103.36780236066
108.07055376359527
117.85387647741503
136.00141838005524
165.54928159289315
165.55031546204978
136.00208558910526
117.85441685223574
108.07098232919193
103.36810716938747
101.31430313204613
100.48512742695307
100.17112385194396
100.0582876865876
100.01946257297553
100.00657976429368
100.0024343977317
100.00113521803722
100.00073764583261
100.00062019695129
100.00059313208385
100.0006134892579
100.00072027234192
100.00109879970287
100.00236595770127
100.00646296300171
100.01928104162039
100.05802981332185
100.17078650113869
100.48471789671223
101.31383231126682
103.36759406383105
108.07044016733076
117.85382191820267
136.00137152113368
165.5492594761925
165.54956349784473
136.00159567862502
117.85399853122426
108.07057664942066
103.36770762980437
101.31390165000523
100.4847293586227
100.17072542475681
100.05788971261923
100.01906467080181
100.00618194410231
100.00203669327749
100.00073764552295
100.00034026517375
100.00022318762328
100.00019701527233
100.00021956657353
100.00033137663583
100.0007202718711
100.0020064145176
100.00613401038281
100.01899526623534
100.05779731774487
100.17061133337347
100.48459685627573
101.31375527441772
103.36754900268153
108.07041554784519
117.85380670736676
136.00139096355517
165.54925577242773
165.5493517199735
136.00146031022547
117.85384718695491
108.0704599420083
103.3675908042386
101.31378267129729
100.48461056435083
100.17060634121769
100.05777082579108
100.01894604361657
100.00606372831892
100.00191886566125
100.00062019661875
100.00022318778367
100.00010654453347
100.00008107421222
100.00010500864812
100.00021956639054
100.00061348856737
100.00190783654638
100.00604726422087
100.01892347835509
100.05774213924383
100.17057234918664
100.48457157342159
101.31374167150017
103.367543342484
108.07041574332789
117.85379792967815
136.00138718148912
165.54925599799475
165.54927877756276
136.00141814773718
117.85380740039206
108.07042521840636
103.3675489702182
101.31374841992016
100.48457555428173
100.1705731612359
100.05773869688225
100.01891515290275
100.00603421820998
100.00189066510045
100.0005931320542
100.00019701498952
100.00008107420715
100.00005626848224
100.00008107425927
100.00019701506105
100.00059313290079
100.00189066659021
100.0060342153847
100.01891517493299
100.05773866248782
100.17057329437687
100.48457579851663
101.31374816598735
103.36755122102515
108.07042315471121
117.85382198087429
136.00139490599798
165.549285158101
165.54927536571785
136.00136700805194
117.85380958441814
108.07042381219034
103.36754242635635
101.31374315849438
100.48457156396606
100.17057247200448
100.05774213785531
100.01892349504543
100.00604727238282
100.00190783607187
100.00061349009766
100.00021956642445
100.00010500869509
100.00008107430395
100.00010654462682
100.00022318742852
100.00062019688127
100.00191886309761
100.00606372261589
100.01894604228967
100.0577707779567
100.170606337422
100.48460998314704
101.31378316188075
103.36758725680622
108.07045379195712
117.85385389188217
136.00143158202644
165.5493421904872
165.54928410242817
136.0013714597356
117.85381336210052
108.07041123657122
103.36754966027915
101.31375454648527
100.4845964501711
100.17061141447387
100.05779725024375
100.01899527461437
100.00613400584051
100.00200641190924
100.0007202716564
100.00033137647382
100.00021956667018
100.0001970153344
100.00022318765336
100.0003402654321
100.00073764595793
100.00203669218546
100.00618195069227
100.01906465712948
100.05788975623152
100.17072550941268
100.48472925818177
101.3139024843765
103.36770599816805
108.07058135521751
117.85397611227727
136.00158402443205
165.54957558787154
165.54922995312822
136.00138484525115
117.85383037662484
108.07043374105461
103.36759528452804
101.31383134557684
100.48471788513352
100.17078637760297
100.0580298244983
100.01928105386018
100.0064629574142
100.00236596115171
100.00109879932037
100.00072027215428
100.00061348921406
100.00059313204987
100.00062019687998
100.00073764610143
100.00113521755772
100.00243439715423
100.00657976770775
100.01946256932493
100.05828772336729
100.17112373874835
100.4851278663221
101.31430206471533
103.36810495552815
108.07098600809066
117.85440123499187
136.0020791784937
165.55033666537952
165.54926446496532
136.00142922682855
117.85386578506828
108.07055415480814
103.36780020840288
101.31417700197184
100.48523492442798
100.17149379674713
100.05892148496807
100.02032679014829
100.00762055747515
100.00359413144434
100.0023659611507
100.00200641381386
100.00190783873077
100.0018906684828
100.00191886429494
100.00203669440823
100.00243439940837
100.00373363876174
100.00787904591772
100.02076187857192
100.05958701172885
100.17242296750345
100.48642701549636
101.31560104725558
103.36940962980154
108.07229771335193
117.85577251561688
136.00367551382445
165.5527862994301
165.54931961784047
136.0015636687651
117.85414131942098
108.07109119126625
103.36872803038095
101.31563289014653
100.4873053866834
100.1741845267973
100.06214810360495
100.02395249961954
100.01150315632243
100.00762055493806
100.00646296465315
100.00613401186548
100.00604726298423
100.00603421805792
100.00606373065548
100.00618195149242
100.0065797693652
100.00787904405531
100.01202446611234
100.02490730508667
100.0637325450314
100.17656876659554
100.49057378168527
101.31975010363347
103.37357156734234
108.07651162978884
117.86018543986144
136.00883886072876
165.56062487187157
165.54958866075398
136.00213182733103
117.8554283231329
108.07344639707063
103.3726440638734
101.32145350002394
100.49513340956366
100.18381846611157
100.0731673617576
100.03588347754804
100.02395249600825
100.02032678734741
100.01928102583288
100.01899526173027
100.0189234856588
100.01891516248342
100.0189460484423
100.01906464444394
100.01946255938385
100.0207618624489
100.02490730289965
100.03779017266446
100.07661554937707
100.18945236298076
100.50345975403836
101.33264813284997
103.38651059598173
108.08962420628764
117.87395274307991
136.0249919909946
165.58501286317994
165.55092389547082
136.0050305420401
117.86111467802075
108.08340320874701
103.38821113427369
101.34326039839102
100.52280653010321
100.21614514701659
100.1086336125203
100.07316756672869
100.06214814717235
100.05892156497521
100.05802996692499
100.05779740687146
100.05774228722993
100.0577387596647
100.0577709164438
100.05788983408463
100.05828783296273
100.05958716404714
100.06373263699189
100.07661565628806
100.11544160719417
100.22828075116985
100.54229709063155
101.37152294427203
103.42553423894842
108.12921826915996
117.91565412713871
136.0740702633738
165.65839207051667
165.55670008434709
136.01755018196707
117.88468708389067
108.1226081421042
103.44586720564389
101.41913385405304
100.61371073367586
100.31748539933027
100.2161449558374
100.18381867760992
100.17418477869161
100.171494134193
100.17078682891422
100.17061147796925
100.1705726360825
100.17057341599319
100.17060666166245
100.17072582938101
100.17112389594458
100.17242326894419
100.17656889916053
100.18945254132143
100.22828086721458
100.34112914914392
100.65518168797345
101.4845434689781
103.53907220430762
108.24465207046734
118.03776381241208
136.2184172562327
165.87162175720647
165.5817608375949
136.0689720107585
117.9764245475675
108.26555975260058
103.64243522136502
101.66199116641825
100.88979637118044
100.61371040552245
100.52280653925544
100.49513427154866
100.48730619954671
100.48523476528848
100.48471831470465
100.48459685400456
100.4845721525483
100.48457631931723
100.48461036249711
100.48472975764825
100.48512792880597
100.48642749790231
100.49057380617403
100.50346001526349
100.54229790259927
100.65518175818296
100.96936652273975
101.79921353843194
103.85548934693979
108.56717647479803
118.38069243765668
136.62542649562585
166.46408242043924
165.6824434100117
136.26470502803124
118.30366941745545
108.74037892801034
104.25164745323102
102.37154985730743
101.66199062802103
101.41913403732217
101.34326058152874
101.32145278988155
101.31563320347064
101.31417732528249
101.31383280652034
101.31375578157419
101.31374186490041
101.3137486524361
101.31378322959611
101.31390278447851
101.31430111101031
101.31560147344719
101.31975078088556
101.33264760364882
101.37152362892328
101.48454433287424
101.79921354814657
102.63075447408748
104.69281363723607
109.42358703365483
119.29701841975503
137.7170574473672
168.02331102450995
166.05417954715838
136.94189466710708
119.35398941917562
110.15337412099659
105.94836614158257
104.25164865416403
103.64243513648454
103.44586155914071
103.3882075637127
103.37264431924292
103.36872955710771
103.3678013183567
103.36759251281457
103.36754833292545
103.36754147138086
103.36754981527011
103.36758498939145
103.367704952377
103.36810431074923
103.36940804497195
103.37356949774997
103.38650913161865
103.4255351901795
103.53907205858572
103.85548774092588
104.69281167179297
106.77345555991636
111.56152263527336
121.60165929366735
140.46963721084694
171.85960248206428
167.28610683444978
139.01987658268493
122.32409905231184
113.86177981728457
110.15339474317646
108.74038367127632
108.26556868221519
108.12261668281091
108.08341387266802
108.07346716281033
108.07109985358991
108.07056504850173
108.07044955232388
108.07042630365109
108.07042472143087
108.07043399731018
108.07046952935238
108.07059030438725
108.07099374647417
108.07231222408438
108.07652361989356
108.0896337168969
108.12923317431706
108.24466402568001
108.56718556776751
109.42359410966915
111.56153243345544
116.51264014873585
126.98515389922618
146.89934093141682
180.54012336913286
170.85365058235465
144.53784834088268
129.57507225305017
122.32408557656544
119.35400920779412
118.30368531063215
117.97644501248759
117.88470919649619
117.86111326204865
117.85545149982721
117.85416629772001
117.85388907451744
117.85383205162998
117.85382013805513
117.85382079868532
117.85383155757397
117.85386879716334
117.85399488973847
117.85441525200467
117.85579171454418
117.86019923979694
117.87396160439776
117.91567460993443
118.03777843432206
118.38070910803737
119.29702742476243
121.60166877425833
126.98516202560049
138.481827267118
160.56956877801778
198.26404089743275
179.65588197043425
156.96269935245934
144.53783542114945
139.01986996247462
136.94192722101857
136.26474168575095
136.0689648021968
136.01755269723483
136.0050453783159
136.00218151619862
136.00155667904588
136.00142530507037
136.00139884840524
136.00139572989045
136.0013978785173
136.00140987868954
136.00145215596524
136.0015985675699
136.0020883648073
136.00369336343502
136.0088474204925
136.02499075155743
136.0741011691099
136.21843100428006
136.62544035051522
137.71706497563872
140.469640070577
146.89935767874866
160.56956855541065
186.53365440757744
230.27375950142306
198.3051133619962
179.65586064735052
170.85364291512724
167.28611008533014
166.05417110639127
165.6824462000085
165.58176838466173
165.55671830516349
165.5508847116116
165.54959519077113
165.5493240571222
165.54926925316948
165.54925818110667
165.5492568498655
165.54926261397026
165.5492817722221
165.54934948736752
165.54957637989807
165.55032930518217
165.55278710658754
165.56062973025416
165.5849972510876
165.65840880472572
165.87162580217475
166.4640797046774
168.0233089687849
171.85959407478123
180.54012434853428
198.2640253190265
230.2737431738221
279.0308680917847
