# vtk DataFile Version 2.0
Unstructured Grid Example
ASCII
DATASET UNSTRUCTURED_GRID

POINTS 961 float
0.150000006 -0.00839745998 0
0.146666661 -0.00839745998 0
0.143333331 -0.00839745998 0
0.140000001 -0.00839745998 0
0.13666667 -0.00839745998 0
0.13333334 -0.00839745998 0
0.129999995 -0.00839745998 0
0.126666665 -0.00839745998 0
0.123333335 -0.00839745998 0
0.119999997 -0.00839745998 0
0.116666667 -0.00839745998 0
0.113333337 -0.00839745998 0
0.109999999 -0.00839745998 0
0.106666669 -0.00839745998 0
0.103333332 -0.00839745998 0
0.100000001 -0.00839745998 0
0.0966666639 -0.00839745998 0
0.0933333337 -0.00839745998 0
0.0900000036 -0.00839745998 0
0.086666666 -0.00839745998 0
0.0833333358 -0.00839745998 0
0.0799999982 -0.00839745998 0
0.0766666681 -0.00839745998 0
0.0733333305 -0.00839745998 0
0.0700000003 -0.00839745998 0
0.0666666701 -0.00839745998 0
0.0633333325 -0.00839745998 0
0.0599999987 -0.00839745998 0
0.0566666685 -0.00839745998 0
0.0533333346 -0.00839745998 0
0.0500000007 -0.00839745998 0
0.148333326 -0.0112842107 0
0.144999996 -0.0112842107 0
0.141666666 -0.0112842107 0
0.138333336 -0.0112842107 0
0.135000005 -0.0112842107 0
0.13166666 -0.0112842107 0
0.12833333 -0.0112842107 0
0.125 -0.0112842107 0
0.12166667 -0.0112842107 0
0.118333332 -0.0112842107 0
0.115000002 -0.0112842107 0
0.111666664 -0.0112842107 0
0.108333334 -0.0112842107 0
0.104999997 -0.0112842107 0
0.101666667 -0.0112842107 0
0.0983333364 -0.0112842107 0
0.0949999988 -0.0112842107 0
0.0916666687 -0.0112842107 0
0.088333331 -0.0112842107 0
0.0850000009 -0.0112842107 0
0.0816666633 -0.0112842107 0
0.0783333331 -0.0112842107 0
0.075000003 -0.0112842107 0
0.0716666654 -0.0112842107 0
0.0683333352 -0.0112842107 0
0.0649999976 -0.0112842107 0
0.0616666675 -0.0112842107 0
0.0583333336 -0.0112842107 0
0.0549999997 -0.0112842107 0
0.0516666658 -0.0112842107 0
0.0483333319 -0.0112842107 0
0.146666661 -0.0141709624 0
0.143333331 -0.0141709624 0
0.140000001 -0.0141709624 0
0.13666667 -0.0141709624 0
0.13333334 -0.0141709624 0
0.129999995 -0.0141709624 0
0.126666665 -0.0141709624 0
0.123333335 -0.0141709624 0
0.119999997 -0.0141709624 0
0.116666667 -0.0141709624 0
0.113333337 -0.0141709624 0
0.109999999 -0.0141709624 0
0.106666669 -0.0141709624 0
0.103333332 -0.0141709624 0
0.100000001 -0.0141709624 0
0.0966666639 -0.0141709624 0
0.0933333337 -0.0141709624 0
0.0900000036 -0.0141709624 0
0.086666666 -0.0141709624 0
0.0833333358 -0.0141709624 0
0.0799999982 -0.0141709624 0
0.0766666681 -0.0141709624 0
0.0733333305 -0.0141709624 0
0.0700000003 -0.0141709624 0
0.0666666701 -0.0141709624 0
0.0633333325 -0.0141709624 0
0.0599999987 -0.0141709624 0
0.0566666685 -0.0141709624 0
0.0533333346 -0.0141709624 0
0.0500000007 -0.0141709624 0
0.0466666669 -0.0141709624 0
0.144999996 -0.0170577131 0
0.141666666 -0.0170577131 0
0.138333336 -0.0170577131 0
0.135000005 -0.0170577131 0
0.13166666 -0.0170577131 0
0.12833333 -0.0170577131 0
0.125 -0.0170577131 0
0.12166667 -0.0170577131 0
0.118333332 -0.0170577131 0
0.115000002 -0.0170577131 0
0.111666664 -0.0170577131 0
0.108333334 -0.0170577131 0
0.104999997 -0.0170577131 0
0.101666667 -0.0170577131 0
0.0983333364 -0.0170577131 0
0.0949999988 -0.0170577131 0
0.0916666687 -0.0170577131 0
0.088333331 -0.0170577131 0
0.0850000009 -0.0170577131 0
0.0816666633 -0.0170577131 0
0.0783333331 -0.0170577131 0
0.075000003 -0.0170577131 0
0.0716666654 -0.0170577131 0
0.0683333352 -0.0170577131 0
0.0649999976 -0.0170577131 0
0.0616666675 -0.0170577131 0
0.0583333336 -0.0170577131 0
0.0549999997 -0.0170577131 0
0.0516666658 -0.0170577131 0
0.0483333319 -0.0170577131 0
0.0450000018 -0.0170577131 0
0.143333331 -0.0199444648 0
0.140000001 -0.0199444648 0
0.13666667 -0.0199444648 0
0.13333334 -0.0199444648 0
0.129999995 -0.0199444648 0
0.126666665 -0.0199444648 0
0.123333335 -0.0199444648 0
0.119999997 -0.0199444648 0
0.116666667 -0.0199444648 0
0.113333337 -0.0199444648 0
0.109999999 -0.0199444648 0
0.106666669 -0.0199444648 0
0.103333332 -0.0199444648 0
0.100000001 -0.0199444648 0
0.0966666639 -0.0199444648 0
0.0933333337 -0.0199444648 0
0.0900000036 -0.0199444648 0
0.086666666 -0.0199444648 0
0.0833333358 -0.0199444648 0
0.0799999982 -0.0199444648 0
0.0766666681 -0.0199444648 0
0.0733333305 -0.0199444648 0
0.0700000003 -0.0199444648 0
0.0666666701 -0.0199444648 0
0.0633333325 -0.0199444648 0
0.0599999987 -0.0199444648 0
0.0566666685 -0.0199444648 0
0.0533333346 -0.0199444648 0
0.0500000007 -0.0199444648 0
0.0466666669 -0.0199444648 0
0.043333333 -0.0199444648 0
0.141666666 -0.0228312165 0
0.138333336 -0.0228312165 0
0.135000005 -0.0228312165 0
0.13166666 -0.0228312165 0
0.12833333 -0.0228312165 0
0.125 -0.0228312165 0
0.12166667 -0.0228312165 0
0.118333332 -0.0228312165 0
0.115000002 -0.0228312165 0
0.111666664 -0.0228312165 0
0.108333334 -0.0228312165 0
0.104999997 -0.0228312165 0
0.101666667 -0.0228312165 0
0.0983333364 -0.0228312165 0
0.0949999988 -0.0228312165 0
0.0916666687 -0.0228312165 0
0.088333331 -0.0228312165 0
0.0850000009 -0.0228312165 0
0.0816666633 -0.0228312165 0
0.0783333331 -0.0228312165 0
0.075000003 -0.0228312165 0
0.0716666654 -0.0228312165 0
0.0683333352 -0.0228312165 0
0.0649999976 -0.0228312165 0
0.0616666675 -0.0228312165 0
0.0583333336 -0.0228312165 0
0.0549999997 -0.0228312165 0
0.0516666658 -0.0228312165 0
0.0483333319 -0.0228312165 0
0.0450000018 -0.0228312165 0
0.0416666679 -0.0228312165 0
0.140000001 -0.0257179681 0
0.13666667 -0.0257179681 0
0.13333334 -0.0257179681 0
0.129999995 -0.0257179681 0
0.126666665 -0.0257179681 0
0.123333335 -0.0257179681 0
0.119999997 -0.0257179681 0
0.116666667 -0.0257179681 0
0.113333337 -0.0257179681 0
0.109999999 -0.0257179681 0
0.106666669 -0.0257179681 0
0.103333332 -0.0257179681 0
0.100000001 -0.0257179681 0
0.0966666639 -0.0257179681 0
0.0933333337 -0.0257179681 0
0.0900000036 -0.0257179681 0
0.086666666 -0.0257179681 0
0.0833333358 -0.0257179681 0
0.0799999982 -0.0257179681 0
0.0766666681 -0.0257179681 0
0.0733333305 -0.0257179681 0
0.0700000003 -0.0257179681 0
0.0666666701 -0.0257179681 0
0.0633333325 -0.0257179681 0
0.0599999987 -0.0257179681 0
0.0566666685 -0.0257179681 0
0.0533333346 -0.0257179681 0
0.0500000007 -0.0257179681 0
0.0466666669 -0.0257179681 0
0.043333333 -0.0257179681 0
0.0399999991 -0.0257179681 0
0.138333336 -0.0286047198 0
0.135000005 -0.0286047198 0
0.13166666 -0.0286047198 0
0.12833333 -0.0286047198 0
0.125 -0.0286047198 0
0.12166667 -0.0286047198 0
0.118333332 -0.0286047198 0
0.115000002 -0.0286047198 0
0.111666664 -0.0286047198 0
0.108333334 -0.0286047198 0
0.104999997 -0.0286047198 0
0.101666667 -0.0286047198 0
0.0983333364 -0.0286047198 0
0.0949999988 -0.0286047198 0
0.0916666687 -0.0286047198 0
0.088333331 -0.0286047198 0
0.0850000009 -0.0286047198 0
0.0816666633 -0.0286047198 0
0.0783333331 -0.0286047198 0
0.075000003 -0.0286047198 0
0.0716666654 -0.0286047198 0
0.0683333352 -0.0286047198 0
0.0649999976 -0.0286047198 0
0.0616666675 -0.0286047198 0
0.0583333336 -0.0286047198 0
0.0549999997 -0.0286047198 0
0.0516666658 -0.0286047198 0
0.0483333319 -0.0286047198 0
0.0450000018 -0.0286047198 0
0.0416666679 -0.0286047198 0
0.038333334 -0.0286047198 0
0.13666667 -0.0314914696 0
0.13333334 -0.0314914696 0
0.129999995 -0.0314914696 0
0.126666665 -0.0314914696 0
0.123333335 -0.0314914696 0
0.119999997 -0.0314914696 0
0.116666667 -0.0314914696 0
0.113333337 -0.0314914696 0
0.109999999 -0.0314914696 0
0.106666669 -0.0314914696 0
0.103333332 -0.0314914696 0
0.100000001 -0.0314914696 0
0.0966666639 -0.0314914696 0
0.0933333337 -0.0314914696 0
0.0900000036 -0.0314914696 0
0.086666666 -0.0314914696 0
0.0833333358 -0.0314914696 0
0.0799999982 -0.0314914696 0
0.0766666681 -0.0314914696 0
0.0733333305 -0.0314914696 0
0.0700000003 -0.0314914696 0
0.0666666701 -0.0314914696 0
0.0633333325 -0.0314914696 0
0.0599999987 -0.0314914696 0
0.0566666685 -0.0314914696 0
0.0533333346 -0.0314914696 0
0.0500000007 -0.0314914696 0
0.0466666669 -0.0314914696 0
0.043333333 -0.0314914696 0
0.0399999991 -0.0314914696 0
0.0366666652 -0.0314914696 0
0.135000005 -0.0343782231 0
0.13166666 -0.0343782231 0
0.12833333 -0.0343782231 0
0.125 -0.0343782231 0
0.12166667 -0.0343782231 0
0.118333332 -0.0343782231 0
0.115000002 -0.0343782231 0
0.111666664 -0.0343782231 0
0.108333334 -0.0343782231 0
0.104999997 -0.0343782231 0
0.101666667 -0.0343782231 0
0.0983333364 -0.0343782231 0
0.0949999988 -0.0343782231 0
0.0916666687 -0.0343782231 0
0.088333331 -0.0343782231 0
0.0850000009 -0.0343782231 0
0.0816666633 -0.0343782231 0
0.0783333331 -0.0343782231 0
0.075000003 -0.0343782231 0
0.0716666654 -0.0343782231 0
0.0683333352 -0.0343782231 0
0.0649999976 -0.0343782231 0
0.0616666675 -0.0343782231 0
0.0583333336 -0.0343782231 0
0.0549999997 -0.0343782231 0
0.0516666658 -0.0343782231 0
0.0483333319 -0.0343782231 0
0.0450000018 -0.0343782231 0
0.0416666679 -0.0343782231 0
0.038333334 -0.0343782231 0
0.0350000001 -0.0343782231 0
0.13333334 -0.0372649729 0
0.129999995 -0.0372649729 0
0.126666665 -0.0372649729 0
0.123333335 -0.0372649729 0
0.119999997 -0.0372649729 0
0.116666667 -0.0372649729 0
0.113333337 -0.0372649729 0
0.109999999 -0.0372649729 0
0.106666669 -0.0372649729 0
0.103333332 -0.0372649729 0
0.100000001 -0.0372649729 0
0.0966666639 -0.0372649729 0
0.0933333337 -0.0372649729 0
0.0900000036 -0.0372649729 0
0.086666666 -0.0372649729 0
0.0833333358 -0.0372649729 0
0.0799999982 -0.0372649729 0
0.0766666681 -0.0372649729 0
0.0733333305 -0.0372649729 0
0.0700000003 -0.0372649729 0
0.0666666701 -0.0372649729 0
0.0633333325 -0.0372649729 0
0.0599999987 -0.0372649729 0
0.0566666685 -0.0372649729 0
0.0533333346 -0.0372649729 0
0.0500000007 -0.0372649729 0
0.0466666669 -0.0372649729 0
0.043333333 -0.0372649729 0
0.0399999991 -0.0372649729 0
0.0366666652 -0.0372649729 0
0.0333333351 -0.0372649729 0
0.13166666 -0.0401517227 0
0.12833333 -0.0401517227 0
0.125 -0.0401517227 0
0.12166667 -0.0401517227 0
0.118333332 -0.0401517227 0
0.115000002 -0.0401517227 0
0.111666664 -0.0401517227 0
[...]
POINT_DATA 961
SCALARS Temp float 1
LOOKUP_TABLE default
311.384753798061
261.64435141332973
225.85156187974962
203.22004080937273
190.2485778301533
183.44840271613083
180.15595381027998
178.66906635568486
178.03684765022825
177.781632842139
177.68311986056366
177.64654405514344
177.63341532503665
177.62884080266232
177.6272893359732
177.62677331882205
177.6266076435402
177.62655915496015
177.62656986230806
177.62667939228774
177.627163623554
177.62913787879023
177.63677031038205
177.66464129107905
177.75972127745663
178.0593322890692
178.92025559355753
181.14672267292812
186.26844672048193
196.6669106982578
215.64782221382126
261.64436857213343
215.90818243142093
185.4800357592132
167.01611323652412
156.8039815138597
151.61306588434746
149.16510349257533
148.0838117306744
147.63249329898426
147.45311209999716
147.38477378397343
147.35968155809365
147.35076149292155
147.34767961859245
147.34664016205727
147.34629989904388
147.34619269707832
147.34617095153
147.34621763254876
147.34646276854278
147.34748637834136
147.3515183971931
147.36656794462644
147.41928771331857
147.59090887423673
148.10400722588403
149.4954666153689
152.87741097982783
160.16987251260366
174.03905609407354
196.66692843931398
225.8515271287131
185.48002417370074
159.08541568938622
143.31929175831146
134.68511726805772
130.3209101938768
128.2678220788193
127.36112645114031
126.98220764502437
126.83128918545553
126.77365272127271
126.75243472926482
126.74487235179406
126.74225332329792
126.74136922880996
126.74107812728289
126.74098904120385
126.74098735826163
126.74109627156201
126.74158604541839
126.74355061313182
126.7510046393965
126.77766834765526
126.8667881527896
127.14223168225767
127.92071786016906
129.9103906568052
134.46164252402193
143.69828418091797
160.16986282274283
186.26845268674674
203.2200062238718
167.01610160991922
143.31929777937827
129.11285288746708
121.29075395396241
117.31183876827603
115.42760957771645
114.59018449298219
114.2381683796073
114.09723583157361
114.0431661582097
114.0231831775078
114.01603682186548
114.01355387187388
114.01271472205505
114.01243949386533
114.01236176156563
114.0123857343811
114.0125987077423
114.01348980929336
114.01692100469117
114.02940056671119
114.07200016397368
114.20731762008924
114.60345602233815
115.66186582158716
118.21907434175465
123.76079009183435
134.46165309291044
152.87742243987324
181.1467148767485
190.24855640816045
156.8039763233883
134.68511793893018
121.29078331860678
113.84982448676891
110.03610273873032
108.2188042477734
107.40702020930115
107.0643870217679
106.92675957223402
106.8738181446105
106.85421013382842
106.84718570695118
106.84474239121026
106.8439150430965
106.84364557698342
106.84357945401301
106.84364567982982
106.84402008835303
106.84550282260206
106.85097015602622
106.869952848707
106.93162497053194
107.11760472284948
107.63396314600273
108.94377076561496
111.95851841646255
118.21907006648959
129.9103878672549
149.49546376698115
178.92026221357122
183.4483845636815
151.61308360915422
130.3209325608073
117.31181960058295
110.03609615950832
106.28841367603054
104.49603082249735
103.69321270939787
103.35368527752598
103.21709930791151
103.16449900817996
103.14500019036349
103.1380098824277
103.13557749159715
103.1347545607162
103.13449043106611
103.13444001351165
103.13456795544835
103.13516844384284
103.13743018128311
103.14539851099626
103.17177287473875
103.25332103293088
103.48732141149539
104.1066581322263
105.61041007972882
108.94376987500672
115.66186667453321
127.9207239162563
148.10398977527092
178.0593237356191
180.1559537248883
149.1651151910912
128.26785015363822
115.42758626696012
108.21879725235682
104.49602968633414
102.7124591317804
101.91263897479361
101.57409713374183
101.437827317871
101.38532644161182
101.36585835096268
101.35887771651383
101.35644818341949
101.35562744581385
101.35536941334946
101.35534169341098
101.35555211831391
101.35643680291355
101.35961262094408
101.3702948032716
101.40403229003333
101.5036203937759
101.7770972616647
102.47286287317887
104.10665701268842
107.63396005050878
114.6034507277359
127.14222843117771
147.59090610509801
177.75973062067752
178.6690751238287
148.08382811836907
127.3610850124995
114.59016546644925
107.40701743871526
103.69321541461575
101.91263848935762
101.11378409433082
100.77554437695775
100.63936810229688
100.58689530453647
100.5674356516933
100.5604576222897
100.55802940090027
100.55721105184516
100.55696085341292
100.5569620343344
100.55727182471881
100.55847597453909
100.56260332036773
100.57588317883294
100.61605339001738
100.72994714078885
101.03174517423868
101.77709686668747
103.48732098021999
107.11760496764424
114.2073180057169
126.86677771568506
147.41927022802975
177.66463161699764
178.03684736938638
147.63251793138045
126.98216725208555
114.23815486603986
107.06438706539956
103.35368277337152
101.57409701181945
100.77554534232803
100.43739623166772
100.30124684616084
100.24878182777363
100.2293245321647
100.22234725279617
100.21991991474589
100.21910429932821
100.2188639055804
100.21889857226404
100.21931588173057
100.22084060500539
100.22584652924404
100.2413198707573
100.28643147513465
100.41028804697771
100.72994744437696
101.50362023810781
103.25332044633376
106.93162434464487
114.07199719440771
126.77767117264568
147.36657319541237
177.63678805749362
177.7816564550927
147.45305026388476
126.83127119410283
114.09723414147008
106.92676650942398
103.21709924248613
101.4378286691295
100.63936811011332
100.30124678331663
100.16510471929082
100.11264198789799
100.09318533566716
100.08620846658643
100.08378208915713
100.08296966113141
100.0827401993128
100.08280985809975
100.08333142612268
100.08514268499833
100.09086833582248
100.10797978570059
100.15644414120139
100.28643132968746
100.61605326876337
101.40403230437019
103.17177281950632
106.86995307047847
114.02939045666308
126.7509931868979
147.3515032946952
177.6291283726684
177.6831738236807
147.38472874146288
126.77364606600355
114.04317054455862
106.87381532656413
103.16450000893032
101.38532841057109
100.58689532306686
100.24878199349206
100.1126419818625
100.06017988811801
100.04072346152081
100.03374696791604
100.03132164519738
100.03051271241665
100.03029432708169
100.03039689882341
100.03100900611778
100.03304864143388
100.03929836145647
100.05749584318055
100.10797985541058
100.24131991975096
100.5758830114138
101.37029444487938
103.1453979777935
106.8509683682153
114.01692012580156
126.7435542631208
147.34749441388698
177.6271509039766
177.64649229725143
147.35965749831678
126.75243695629972
114.023193364608
106.85420756973559
103.14500163723149
101.36585763954494
100.56743577592026
100.22932424539404
100.09318534073765
100.04072349761861
100.0212672718856
100.01429120764168
100.01186704352988
100.01106160142392
100.01085338846767
100.01098381635211
100.0116663303719
100.01386854606999
100.02045866033663
100.03929840537097
100.09086838073442
100.2258464658166
100.56260361321317
101.35961328194573
103.13743220345866
106.84550076590293
114.01348640843104
126.74158677739192
147.34646359515588
177.6266928839835
177.63339686729967
147.3507636651815
126.74488906574875
114.01603174358742
106.8471871232695
103.13801400168929
101.35887744668464
100.56045821358137
100.22234708308184
100.08620852245201
100.03374694564393
100.01429119717906
100.00731577478628
100.00489293057888
100.00409077178318
100.00389108640765
100.00404278570612
100.00477446062582
100.007080375211
100.0138685251077
100.03304863202919
100.08514274870723
100.22084038468519
100.55847586974923
101.35643652485419
103.13516765053818
106.84401931946654
114.01259768301068
126.7411010283367
147.34619644188862
177.6265723890172
177.628825774137
147.34768262790763
126.74227303841285
114.01354759794904
106.84474374672364
103.13557539352685
101.35644816350279
100.55802898463513
100.21991981760408
100.08378218366391
100.03132161213355
100.01186703942005
100.00489292881919
100.0024718700786
100.00167285285919
100.00147987288508
100.00164636239892
100.00240900679832
100.00477445804829
100.0116663356041
100.03100899853034
100.08333146343799
100.21931586203276
100.5572721389962
101.35555293233713
103.13456697541599
106.84364384659487
114.01238279259177
126.7409874271873
147.3461744000179
177.6265590620601
177.6272907266038
147.34665829385114
126.74135941835448
114.01271436622456
106.84392155020032
103.13475373628393
101.35562875995304
100.55721088138408
100.21910428079735
100.08296964238335
100.03051270798247
100.01106160842001
100.00409076999784
100.0016728539242
100.00087740135905
100.00068977461805
100.0008659099137
100.00164636126503
100.00404278175498
100.01098380808143
100.03039690167395
100.08280983139029
100.2188983763623
100.55696192585772
101.35534129456474
103.13443968986208
106.84357904315262
114.01236144539504
126.74097788757568
147.346189494788
177.62660082955762
177.62677236880907
147.34631853606652
126.74106678955215
114.01244017428516
106.84364092920005
103.13449007636052
101.35536834056191
100.55696085849333
100.21886400680027
100.08274016702832
100.03029432925145
100.01085337160616
100.00389108635568
100.00147987104899
100.00068977459493
100.00050723320406
100.00068977496518
100.00147987159907
100.00389109098843
100.01085337913848
100.03029431683318
100.08274024547504
100.21886389834332
100.55696121533434
101.3553689490737
103.13448951983311
106.84364469448793
114.01243673589671
126.7410824168888
147.34629193564115
177.6267767479989
177.6266243377176
147.34616937499453
126.74099289305727
114.01237256513
106.84357759883495
103.13444250950974
101.35534129976199
100.55696229179367
100.2188983741899
100.08280989925645
100.0303969372159
100.01098380615818
100.00404279061297
100.00164636155849
100.00086591025253
100.00068977527222
100.00087740200263
100.00167285165354
100.00409077143773
100.01106159570797
100.03051268162851
100.08296963809717
100.21910411907871
100.55721085934114
101.35562741545878
103.13475448639946
106.84391541784917
114.0127047785721
126.74136717282163
147.34662649623374
177.6272813826519
177.6265889076324
147.34615378600242
126.74099482207458
114.01237605733414
106.8436449540034
103.13456550879751
101.35555204055353
100.5572723643639
100.21931565536303
100.0833314940652
100.03100897797285
100.01166632296626
100.00477445651495
100.00240900574694
100.00164636307659
100.00147987325047
100.00167285307845
100.00247187166946
100.00489293130701
100.01186703402428
100.03132163971506
100.08378213433505
100.21991995336519
100.55802921815896
101.35644784136922
103.13557695233214
106.84474082104602
114.01355364698229
126.74224693770495
147.3476716713865
177.6288414202209
177.62653959173235
147.34620922547
126.7411101155069
114.01258872285524
106.84402127112088
103.13516585834442
101.35643655981957
100.5584755220799
100.22084042509321
100.08514279117793
100.03304860757055
100.01386854217473
100.00708037293334
100.00477445943615
100.0040427854932
100.0038910862086
100.00409077124071
100.00489293213265
100.00731577213656
100.01429119396984
100.03374696121283
100.08620850566128
100.22234719227157
100.56045789262323
101.35887836638567
103.13801190547268
106.84718348573574
114.01603810214542
126.74487187567972
147.35076073976268
177.63342388873187
177.62667376777253
147.34647438547498
126.74157340126301
114.01348747513575
106.8454973075585
103.13743016774983
101.35961377359249
100.56260312969545
100.22584655105314
100.0908683317694
100.0392983736911
100.02045865626715
100.01386854269539
100.01166633246245
100.01098381849582
100.01085338873307
100.01106160180838
100.01186704432462
100.01429120499624
100.02126728133905
100.04072347657532
100.09318538764862
100.22932431168596
100.56743554283591
101.3658580497101
103.14499939960942
106.85420939530539
114.02317546615373
126.75242808702406
147.35967175111725
177.64654353123288
177.6271590637956
147.34750242725056
126.74353650650231
114.01692264590885
106.8509645727419
103.14539807998474
101.37029367271171
100.57588313491387
100.24132003642633
100.10797979617251
100.05749589053056
100.0392983597978
100.03304863886288
100.03100900464858
100.03039689657119
100.03029432755213
100.03051271615624
100.03132164277228
100.03374696806854
100.04072346701824
100.06017987801862
100.1126420144901
100.24878181948249
100.5868956177617
101.38532716722176
103.16449781620605
106.87381847465481
114.04316215271969
126.7736520181349
147.38477320456303
177.68311648532932
177.6291311048778
147.35147673203227
126.75099391668977
114.02938388203846
106.86994917436762
103.17177397028176
101.40403128063517
100.6160534969113
100.28643122334836
100.15644406713473
100.10797977434797
100.09086832352287
100.08514269112335
100.08333144158853
100.08280986020648
100.08274019873363
100.08296966120918
100.08378208550408
100.08620847027059
100.09318532797002
100.11264200748283
100.1651047299788
100.30124665793721
100.63936822842194
101.43782760264243
103.21710057279873
106.92675855089092
114.09723483202174
126.83129574922074
147.45312172872266
177.78164975216765
177.63681319399075
147.36656249979265
126.77768664277183
114.07199702339551
106.93162832752562
103.25332069857065
101.5036215284221
100.72994829542506
100.41028829199077
100.28643191258695
100.24132018118527
100.22584680906563
100.22084087741806
100.21931614603089
100.21889885471754
100.21886420505527
100.21910456849751
100.21992020308547
100.2223475361765
100.22932479647326
100.24878210438918
100.3012470006832
100.43739650033434
100.77554479195523
101.57409586246436
103.35368407843328
107.06438277102949
114.23815995033682
126.9821996812088
147.63246826988095
178.0368309744464
177.664624537936
147.41929196049614
126.86677862500056
114.20731794380318
107.1176111196354
103.48732105171001
101.77709869547249
101.03174589473241
100.72994775697896
100.61605407139872
100.57588382353376
100.56260402904074
100.55847675105431
100.55727252666306
100.55696271865506
100.5569615374484
100.55721172695303
100.55803009313006
100.56045831187537
100.56743637160808
100.58689596504804
100.63936870602505
100.77554503430244
101.11378413612188
101.91263960649465
103.69321189157648
107.40701831906514
114.59017956332457
127.36112433942716
148.08380600386457
178.6690629326083
177.75971435061763
147.59092382623206
127.14222407695442
114.60345572207278
107.63395930372802
104.10665920928155
102.47286460340301
101.7770978346378
101.50362149488885
101.40403323158837
101.3702956072967
101.35961337974929
101.35643750998436
101.35555292271317
101.35534257965973
101.35537015933363
101.35562829319055
101.35644900156989
101.35887849151977
101.36585917914522
101.38532722167865
101.43782816289324
101.57409767529555
101.91263963419846
102.71246134091584
104.49603005762448
108.2188038719748
115.42760977065973
128.26781892837192
149.16509933217142
180.15595589777834
178.05933070771403
148.10397534543316
127.92071397527512
115.66187158984982
108.94376649428851
105.61041132885843
104.10665790393601
103.48732118714206
103.25332097950795
103.17177271392339
103.14539861875014
103.13743060368654
103.13516856066168
103.13456798915414
103.13444002911227
103.13449044781834
103.13475462907317
103.13557757422598
103.13801008406284
103.14500019283729
103.16449910792093
103.2170995035386
103.35368522242517
103.69321343136433
104.49602994128308
106.28841584106083
110.03610653630722
117.31184476787222
130.32091784787727
151.61306907367737
183.4483876983343
178.9202620419854
149.49544065472088
129.91038469338102
118.2190604520013
111.95851597759466
108.94376854088067
107.63395902679312
107.11760187386223
106.93162215443216
106.86994958249132
106.8509667043363
106.84549911459109
106.84401676463993
106.84364263903015
106.84357594791113
106.84364244095859
106.84391178274275
106.84473899297241
106.84718245295288
106.85420686760263
106.87381486945515
106.92675604138246
107.06438415483507
107.40701795619292
108.21880116705485
110.03610349448947
113.84983430558977
121.29075920590657
134.6850997582772
156.80396587230612
190.24856534398765
181.1467231276025
152.8774311473277
134.46167949721402
123.76080045993713
118.21909018707842
115.66187837747849
114.60346810929342
114.2073297105409
114.07201181828995
114.02941304392517
114.0169343702133
114.01350231471105
114.01261092961253
114.0123978537916
114.01237402494037
114.01245183007886
114.01272710669215
114.01356658899587
114.01604894275776
114.02319561673703
114.04317868626691
114.09724796129929
114.23818069448846
114.59019594198625
115.42762218275193
117.31185434573071
121.29077338295795
129.11284086991887
143.31927482755518
167.01607723968306
203.22001140534158
186.26846064924467
160.16989189092587
143.6982976022623
134.46166286373915
129.91040966561417
127.92073285605396
127.1422485278935
126.86680541719433
126.77768472236325
126.75102054229662
126.74356564338441
126.74160202596144
126.74111290873795
126.74100306231935
126.74100560617222
126.74109434638292
126.74138514441057
126.74226943716666
126.74488856180324
126.75245078537428
126.77366828467487
126.83130607948839
126.98222416041662
127.36114161677494
128.26783883368873
130.32092865365175
134.68511107751587
143.31928160979567
159.0853972357592
185.480005250811
225.8515362429909
196.6669297854879
174.0390788505316
160.1698760662764
152.87742274335272
149.49547460924336
148.1040147766825
147.59091644792835
147.41929453608827
147.36657669922323
147.3515284080669
147.34749473481793
147.346470652441
147.34622527153007
147.3461792304551
147.34620087373006
147.3463081852723
147.34664899169752
147.34768731294412
147.35076989542
147.35968998271954
147.3847817883285
147.45311996711587
147.6325011809657
148.0838209125404
149.16511392301217
151.6130771902549
156.80397001092314
167.0160911338353
185.48000281179398
215.9081498737664
261.6442976015964
215.6478380535854
196.66690589540107
186.26845094746366
181.14672626719985
178.9202537744861
178.05933318076362
177.75972219534736
177.6646429173923
177.6367712580701
177.6291358398532
177.62716356945032
177.6266799113132
177.62657006576958
177.62656007167843
177.62660805966692
177.6267737382394
177.62728885476767
177.6288416128735
177.63341543030816
177.6465435828655
177.6831209673227
177.78163368962512
178.036848199839
178.6690671351614
180.15595256296106
183.44838453979045
190.248558777181
203.22000893525868
225.8515174245004
261.6442803273406
311.38436763492643
