# vtk DataFile Version 2.0
Unstructured Grid Example
ASCII
DATASET UNSTRUCTURED_GRID

POINTS 961 float
0.150000006 -0.00839745998 0
0.146666661 -0.00839745998 0
0.143333331 -0.00839745998 0
0.140000001 -0.00839745998 0
0.13666667 -0.00839745998 0
0.13333334 -0.00839745998 0
0.129999995 -0.00839745998 0
0.126666665 -0.00839745998 0
0.123333335 -0.00839745998 0
0.119999997 -0.00839745998 0
0.116666667 -0.00839745998 0
0.113333337 -0.00839745998 0
0.109999999 -0.00839745998 0
0.106666669 -0.00839745998 0
0.103333332 -0.00839745998 0
0.100000001 -0.00839745998 0
0.0966666639 -0.00839745998 0
0.0933333337 -0.00839745998 0
0.0900000036 -0.00839745998 0
0.086666666 -0.00839745998 0
0.0833333358 -0.00839745998 0
0.0799999982 -0.00839745998 0
0.0766666681 -0.00839745998 0
0.0733333305 -0.00839745998 0
0.0700000003 -0.00839745998 0
0.0666666701 -0.00839745998 0
0.0633333325 -0.00839745998 0
0.0599999987 -0.00839745998 0
0.0566666685 -0.00839745998 0
0.0533333346 -0.00839745998 0
0.0500000007 -0.00839745998 0
0.148333326 -0.0112842107 0
0.144999996 -0.0112842107 0
0.141666666 -0.0112842107 0
0.138333336 -0.0112842107 0
0.135000005 -0.0112842107 0
0.13166666 -0.0112842107 0
0.12833333 -0.0112842107 0
0.125 -0.0112842107 0
0.12166667 -0.0112842107 0
0.118333332 -0.0112842107 0
0.115000002 -0.0112842107 0
0.111666664 -0.0112842107 0
0.108333334 -0.0112842107 0
0.104999997 -0.0112842107 0
0.101666667 -0.0112842107 0
0.0983333364 -0.0112842107 0
0.0949999988 -0.0112842107 0
0.0916666687 -0.0112842107 0
0.088333331 -0.0112842107 0
0.0850000009 -0.0112842107 0
0.0816666633 -0.0112842107 0
0.0783333331 -0.0112842107 0
0.075000003 -0.0112842107 0
0.0716666654 -0.0112842107 0
0.0683333352 -0.0112842107 0
0.0649999976 -0.0112842107 0
0.0616666675 -0.0112842107 0
0.0583333336 -0.0112842107 0
0.0549999997 -0.0112842107 0
0.0516666658 -0.0112842107 0
0.0483333319 -0.0112842107 0
0.146666661 -0.0141709624 0
0.143333331 -0.0141709624 0
0.140000001 -0.0141709624 0
0.13666667 -0.0141709624 0
0.13333334 -0.0141709624 0
0.129999995 -0.0141709624 0
0.126666665 -0.0141709624 0
0.123333335 -0.0141709624 0
0.119999997 -0.0141709624 0
0.116666667 -0.0141709624 0
0.113333337 -0.0141709624 0
0.109999999 -0.0141709624 0
0.106666669 -0.0141709624 0
0.103333332 -0.0141709624 0
0.100000001 -0.0141709624 0
0.0966666639 -0.0141709624 0
0.0933333337 -0.0141709624 0
0.0900000036 -0.0141709624 0
0.086666666 -0.0141709624 0
0.0833333358 -0.0141709624 0
0.0799999982 -0.0141709624 0
0.0766666681 -0.0141709624 0
0.0733333305 -0.0141709624 0
0.0700000003 -0.0141709624 0
0.0666666701 -0.0141709624 0
0.0633333325 -0.0141709624 0
0.0599999987 -0.0141709624 0
0.0566666685 -0.0141709624 0
0.0533333346 -0.0141709624 0
0.0500000007 -0.0141709624 0
0.0466666669 -0.0141709624 0
0.144999996 -0.0170577131 0
0.141666666 -0.0170577131 0
0.138333336 -0.0170577131 0
0.135000005 -0.0170577131 0
0.13166666 -0.0170577131 0
0.12833333 -0.0170577131 0
0.125 -0.0170577131 0
0.12166667 -0.0170577131 0
0.118333332 -0.0170577131 0
0.115000002 -0.0170577131 0
0.111666664 -0.0170577131 0
0.108333334 -0.0170577131 0
0.104999997 -0.0170577131 0
0.101666667 -0.0170577131 0
0.0983333364 -0.0170577131 0
0.0949999988 -0.0170577131 0
0.0916666687 -0.0170577131 0
0.088333331 -0.0170577131 0
0.0850000009 -0.0170577131 0
0.0816666633 -0.0170577131 0
0.0783333331 -0.0170577131 0
0.075000003 -0.0170577131 0
0.0716666654 -0.0170577131 0
0.0683333352 -0.0170577131 0
0.0649999976 -0.0170577131 0
0.0616666675 -0.0170577131 0
0.0583333336 -0.0170577131 0
0.0549999997 -0.0170577131 0
0.0516666658 -0.0170577131 0
0.0483333319 -0.0170577131 0
0.0450000018 -0.0170577131 0
0.143333331 -0.0199444648 0
0.140000001 -0.0199444648 0
0.13666667 -0.0199444648 0
0.13333334 -0.0199444648 0
0.129999995 -0.0199444648 0
0.126666665 -0.0199444648 0
0.123333335 -0.0199444648 0
0.119999997 -0.0199444648 0
0.116666667 -0.0199444648 0
0.113333337 -0.0199444648 0
0.109999999 -0.0199444648 0
0.106666669 -0.0199444648 0
0.103333332 -0.0199444648 0
0.100000001 -0.0199444648 0
0.0966666639 -0.0199444648 0
0.0933333337 -0.0199444648 0
0.0900000036 -0.0199444648 0
0.086666666 -0.0199444648 0
0.0833333358 -0.0199444648 0
0.0799999982 -0.0199444648 0
0.0766666681 -0.0199444648 0
0.0733333305 -0.0199444648 0
0.0700000003 -0.0199444648 0
0.0666666701 -0.0199444648 0
0.0633333325 -0.0199444648 0
0.0599999987 -0.0199444648 0
0.0566666685 -0.0199444648 0
0.0533333346 -0.0199444648 0
0.0500000007 -0.0199444648 0
0.0466666669 -0.0199444648 0
0.043333333 -0.0199444648 0
0.141666666 -0.0228312165 0
0.138333336 -0.0228312165 0
0.135000005 -0.0228312165 0
0.13166666 -0.0228312165 0
0.12833333 -0.0228312165 0
0.125 -0.0228312165 0
0.12166667 -0.0228312165 0
0.118333332 -0.0228312165 0
0.115000002 -0.0228312165 0
0.111666664 -0.0228312165 0
0.108333334 -0.0228312165 0
0.104999997 -0.0228312165 0
0.101666667 -0.0228312165 0
0.0983333364 -0.0228312165 0
0.0949999988 -0.0228312165 0
0.0916666687 -0.0228312165 0
0.088333331 -0.0228312165 0
0.0850000009 -0.0228312165 0
0.0816666633 -0.0228312165 0
0.0783333331 -0.0228312165 0
0.075000003 -0.0228312165 0
0.0716666654 -0.0228312165 0
0.0683333352 -0.0228312165 0
0.0649999976 -0.0228312165 0
0.0616666675 -0.0228312165 0
0.0583333336 -0.0228312165 0
0.0549999997 -0.0228312165 0
0.0516666658 -0.0228312165 0
0.0483333319 -0.0228312165 0
0.0450000018 -0.0228312165 0
0.0416666679 -0.0228312165 0
0.140000001 -0.0257179681 0
0.13666667 -0.0257179681 0
0.13333334 -0.0257179681 0
0.129999995 -0.0257179681 0
0.126666665 -0.0257179681 0
0.123333335 -0.0257179681 0
0.119999997 -0.0257179681 0
0.116666667 -0.0257179681 0
0.113333337 -0.0257179681 0
0.109999999 -0.0257179681 0
0.106666669 -0.0257179681 0
0.103333332 -0.0257179681 0
0.100000001 -0.0257179681 0
0.0966666639 -0.0257179681 0
0.0933333337 -0.0257179681 0
0.0900000036 -0.0257179681 0
0.086666666 -0.0257179681 0
0.0833333358 -0.0257179681 0
0.0799999982 -0.0257179681 0
0.0766666681 -0.0257179681 0
0.0733333305 -0.0257179681 0
0.0700000003 -0.0257179681 0
0.0666666701 -0.0257179681 0
0.0633333325 -0.0257179681 0
0.0599999987 -0.0257179681 0
0.0566666685 -0.0257179681 0
0.0533333346 -0.0257179681 0
0.0500000007 -0.0257179681 0
0.0466666669 -0.0257179681 0
0.043333333 -0.0257179681 0
0.0399999991 -0.0257179681 0
0.138333336 -0.0286047198 0
0.135000005 -0.0286047198 0
0.13166666 -0.0286047198 0
0.12833333 -0.0286047198 0
0.125 -0.0286047198 0
0.12166667 -0.0286047198 0
0.118333332 -0.0286047198 0
0.115000002 -0.0286047198 0
0.111666664 -0.0286047198 0
0.108333334 -0.0286047198 0
0.104999997 -0.0286047198 0
0.101666667 -0.0286047198 0
0.0983333364 -0.0286047198 0
0.0949999988 -0.0286047198 0
0.0916666687 -0.0286047198 0
0.088333331 -0.0286047198 0
0.0850000009 -0.0286047198 0
0.0816666633 -0.0286047198 0
0.0783333331 -0.0286047198 0
0.075000003 -0.0286047198 0
0.0716666654 -0.0286047198 0
0.0683333352 -0.0286047198 0
0.0649999976 -0.0286047198 0
0.0616666675 -0.0286047198 0
0.0583333336 -0.0286047198 0
0.0549999997 -0.0286047198 0
0.0516666658 -0.0286047198 0
0.0483333319 -0.0286047198 0
0.0450000018 -0.0286047198 0
0.0416666679 -0.0286047198 0
0.038333334 -0.0286047198 0
0.13666667 -0.0314914696 0
0.13333334 -0.0314914696 0
0.129999995 -0.0314914696 0
0.126666665 -0.0314914696 0
0.123333335 -0.0314914696 0
0.119999997 -0.0314914696 0
0.116666667 -0.0314914696 0
0.113333337 -0.0314914696 0
0.109999999 -0.0314914696 0
0.106666669 -0.0314914696 0
0.103333332 -0.0314914696 0
0.100000001 -0.0314914696 0
0.0966666639 -0.0314914696 0
0.0933333337 -0.0314914696 0
0.0900000036 -0.0314914696 0
0.086666666 -0.0314914696 0
0.0833333358 -0.0314914696 0
0.0799999982 -0.0314914696 0
0.0766666681 -0.0314914696 0
0.0733333305 -0.0314914696 0
0.0700000003 -0.0314914696 0
0.0666666701 -0.0314914696 0
0.0633333325 -0.0314914696 0
0.0599999987 -0.0314914696 0
0.0566666685 -0.0314914696 0
0.0533333346 -0.0314914696 0
0.0500000007 -0.0314914696 0
0.0466666669 -0.0314914696 0
0.043333333 -0.0314914696 0
0.0399999991 -0.0314914696 0
0.0366666652 -0.0314914696 0
0.135000005 -0.0343782231 0
0.13166666 -0.0343782231 0
0.12833333 -0.0343782231 0
0.125 -0.0343782231 0
0.12166667 -0.0343782231 0
0.118333332 -0.0343782231 0
0.115000002 -0.0343782231 0
0.111666664 -0.0343782231 0
0.108333334 -0.0343782231 0
0.104999997 -0.0343782231 0
0.101666667 -0.0343782231 0
0.0983333364 -0.0343782231 0
0.0949999988 -0.0343782231 0
0.0916666687 -0.0343782231 0
0.088333331 -0.0343782231 0
0.0850000009 -0.0343782231 0
0.0816666633 -0.0343782231 0
0.0783333331 -0.0343782231 0
0.075000003 -0.0343782231 0
0.0716666654 -0.0343782231 0
0.0683333352 -0.0343782231 0
0.0649999976 -0.0343782231 0
0.0616666675 -0.0343782231 0
0.0583333336 -0.0343782231 0
0.0549999997 -0.0343782231 0
0.0516666658 -0.0343782231 0
0.0483333319 -0.0343782231 0
0.0450000018 -0.0343782231 0
0.0416666679 -0.0343782231 0
0.038333334 -0.0343782231 0
0.0350000001 -0.0343782231 0
0.13333334 -0.0372649729 0
0.129999995 -0.0372649729 0
0.126666665 -0.0372649729 0
0.123333335 -0.0372649729 0
0.119999997 -0.0372649729 0
0.116666667 -0.0372649729 0
0.113333337 -0.0372649729 0
0.109999999 -0.0372649729 0
0.106666669 -0.0372649729 0
0.103333332 -0.0372649729 0
0.100000001 -0.0372649729 0
0.0966666639 -0.0372649729 0
0.0933333337 -0.0372649729 0
0.0900000036 -0.0372649729 0
0.086666666 -0.0372649729 0
0.0833333358 -0.0372649729 0
0.0799999982 -0.0372649729 0
0.0766666681 -0.0372649729 0
0.0733333305 -0.0372649729 0
0.0700000003 -0.0372649729 0
0.0666666701 -0.0372649729 0
0.0633333325 -0.0372649729 0
0.0599999987 -0.0372649729 0
0.0566666685 -0.0372649729 0
0.0533333346 -0.0372649729 0
0.0500000007 -0.0372649729 0
0.0466666669 -0.0372649729 0
0.043333333 -0.0372649729 0
0.0399999991 -0.0372649729 0
0.0366666652 -0.0372649729 0
0.0333333351 -0.0372649729 0
0.13166666 -0.0401517227 0
0.12833333 -0.0401517227 0
0.125 -0.0401517227 0
0.12166667 -0.0401517227 0
0.118333332 -0.0401517227 0
0.115000002 -0.0401517227 0
0.111666664 -0.0401517227 0
[...]
POINT_DATA 961
SCALARS Temp float 1
LOOKUP_TABLE default
207.23332193457708
166.6368039652007
148.4969416786361
142.40797165320186
140.5996799469279
140.09436905219704
139.95819455526325
139.92237368217587
139.9131203567922
139.91076212528156
139.9101651198974
139.91001958624742
139.90998295170556
139.90997363356402
139.9099736966788
139.90997005273144
139.90997003560025
139.90996787558495
139.90997064757983
139.909970652058
139.90997106865078
139.9099751876823
139.90998401833426
139.91006164905528
139.91055763634472
139.91373061842714
139.93359763228005
140.05525497751876
140.77299957709803
144.7123763642403
161.39391962557033
166.63682033440222
132.48609983571885
119.93455479788494
115.97212716514856
114.82416220980302
114.50716691564398
114.42232606069021
114.40011806655932
114.39440035609479
114.39294710429716
114.39258252256673
114.39249033696761
114.39246749665045
114.3924622490044
114.39245873689735
114.39246018929734
114.3924604233427
114.39246134677893
114.39246038776774
114.39246043442499
114.39246150061149
114.39246434579111
114.39249901913914
114.39271032872827
114.39404443939303
114.40232589802346
114.45251480651582
114.74466458187935
116.32885178995818
123.43565588553957
144.7123869995433
148.4969302640113
119.93455682500854
109.23525041647788
105.85121456753252
104.86361060131159
104.5891329535012
104.5152917544449
104.49588482040713
104.49087173678933
104.48959401198331
104.489273036149
104.48919255808124
104.48917258082085
104.48916761236684
104.48916683216453
104.48916603543933
104.4891654766788
104.48916623588734
104.4891662017766
104.48916650060784
104.48916831049686
104.48918155642929
104.48926170644154
104.48976203484932
104.49281482053212
104.51087708262743
104.61308934584756
105.15061077300535
107.58568096540846
116.32884351654909
140.7729988911047
142.40796543491805
115.97213252366043
105.85121965064688
102.61236436606539
101.66140494850329
101.39605465655019
101.32447281896516
101.30562164675385
101.30074579317959
101.29950248865761
101.29918867126806
101.29911024514958
101.29909079382678
101.29908581111893
101.29908487630519
101.29908456131275
101.29908471759468
101.29908454870265
101.29908464035249
101.29908531928574
101.29908970239842
101.29911839456281
101.29929166627909
101.3003230543772
101.30625982386604
101.33884327159895
101.50513074824151
102.25648772732687
105.15061343537894
114.74467203212477
140.0552516198398
140.59968368590475
114.82416687769881
104.8636148285038
101.6614094333028
100.71882929250125
100.45543095470097
100.38430837533743
100.36556632840234
100.3607166519175
100.35947945976494
100.35916732823445
100.35908930245074
100.35906994869441
100.35906524419117
100.35906401059634
100.35906369079565
100.35906369674942
100.35906371060292
100.35906394308581
100.35906547748311
100.35907500005852
100.35913125746647
100.35945801416541
100.36128831028448
100.3710451870753
100.41954949526338
100.63734630768943
101.50512983824059
104.61308899484455
114.45251308478132
139.93360278447184
140.09436767539782
114.50717535841419
104.58913851241661
101.39605114825949
100.45542994386456
100.19245638001921
100.1214284770409
100.10270805801592
100.09786346056995
100.09662734722556
100.09631550277074
100.09623755544006
100.09621820941292
100.09621346237019
100.09621229278378
100.09621203064393
100.09621195906513
100.09621202083463
100.09621251369047
100.0962154899251
100.09623292694144
100.09633155422867
100.09686961107646
100.09966320382901
100.1132445956203
100.17380032574373
100.4195494406487
101.33884359946636
104.51087966400839
114.40231524269964
139.9137224110758
139.95818930291
114.42233284900512
104.51530166062297
101.32446702200208
100.38430731165836
100.12142838386681
100.0504203601117
100.03170435890922
100.02686070711513
100.02562482772514
100.02531303935521
100.02523510478312
100.02521577855981
100.02521100947067
100.02520984029991
100.02520956476368
100.02520952050064
100.02520965801395
100.02521056179337
100.02521574610681
100.02524438723955
100.0253968917268
100.02617040137253
100.0298605745344
100.04620252376931
100.11324454582122
100.37104493533776
101.30625907504613
104.49281285366102
114.39404178938425
139.91056649012816
139.92237848839963
114.4001234902391
104.49586845955112
101.30561678651735
100.36556579621808
100.10270821887836
100.03170435046792
100.01298924341262
100.00814576341081
100.00690993173014
100.0065981532474
100.00652022010934
100.00650089050451
100.00649612668632
100.00649496202772
100.00649468399143
100.0064946611478
100.00649491136835
100.00649639776508
100.00650446528255
100.00654647041837
100.0067551635189
100.00773498715576
100.01204745090534
100.02986056281942
100.09966319819277
100.36128831782584
101.3003230125263
104.48975870013358
114.39269842480753
139.9100524114599
139.91311104905515
114.39441079269619
104.49085213930283
101.30074261902156
100.36071671834668
100.09786339851351
100.02686072334905
100.00814578461919
100.00330233586092
100.00206651425353
100.00175473714623
100.0016768056166
100.00165747455475
100.00165271094347
100.00165154612915
100.00165127488937
100.00165128207273
100.00165168330234
100.00165389507907
100.00166519944436
100.00172035780376
100.00197584206354
100.00309421652504
100.00773499384991
100.02617039357388
100.0968695668544
100.35945798162875
101.29929090237334
104.4892622572731
114.39250142147698
139.909996814898
139.91075967949388
114.39289911332271
104.48958611103158
101.29950235920606
100.359480459355
100.09662739416328
100.02562488370157
100.00690993602049
100.00206651369673
100.00083069127098
100.00051891550885
100.00044098369884
100.00042165301083
100.0004168899363
100.00041572622497
100.00041546280441
100.00041550820966
100.00041608725182
100.0004190691987
100.00043340621748
100.000499054002
100.00078508309834
100.00197584044895
100.00675515995732
100.0253968935533
100.09633155635102
100.35913129026387
101.29911648528353
104.48917704898362
114.39245499047998
139.90996468521
139.91020346122343
114.3925503864617
104.48927237957494
101.29919035211942
100.35916739130384
100.09631559781393
100.02531311165458
100.00659815153928
100.0017547387487
100.00051891534928
100.00020713999308
100.00012920805146
100.00010987752559
100.00010511476982
100.00010395311887
100.00010369918968
100.00010378750213
100.00010454712938
100.0001082193108
100.00012488524717
100.00019721291609
100.00049905440015
100.00172035844126
100.00654646761245
100.02524437677363
100.09623289715653
100.35907470438784
101.29908949022727
104.48916956552803
114.39246836173707
139.90996356747414
139.9099905379924
114.39248261124146
104.48919639385241
101.29911323461855
100.35908913425654
100.0962376421929
100.02523508545492
100.00652022002993
100.00167680199344
100.00044098370313
100.00012920821194
100.00005127620703
100.00003194584083
100.00002718357621
100.00002602427561
100.00002578056832
100.00002591064307
100.00002682577069
100.00003101097644
100.0000491281945
100.00012488546389
100.00043340658328
100.00166519847868
100.00650446977556
100.02521576143933
100.09621559672831
100.35906528070453
101.2990847272171
104.48916717622116
114.39246024933381
139.9099814885865
139.9099808783129
114.3924766885248
104.48918022344095
101.2990904582563
100.35907004718219
100.09621842745709
100.02521575440811
100.00650090082222
100.00165747209174
100.00042165341337
100.00010987742667
100.00003194579912
100.00001261564901
100.00000785406573
100.00000669728301
100.00000646322852
100.00000662810753
100.00000765552747
100.00001215431956
100.00003101091274
100.00010821926917
100.00041906967324
100.00165389234002
100.00649639597353
100.02521055594995
100.09621246016529
100.3590638728811
101.29908450387741
104.4891679745279
114.39244505197411
139.90996869561008
139.90996883012855
114.39246723102657
104.48917593488567
101.29908430961255
100.3590652016703
100.09621334154811
100.0252110024349
100.00649611999276
100.00165270970226
100.00041689064425
100.00010511457941
100.00002718355498
100.00000785406168
100.00000309360723
100.00000193947048
100.00000171348081
100.00000190302161
100.00000299801681
100.00000765552082
100.00002682578805
100.00010454708413
100.00041608747095
100.00165168297639
100.00649491707092
100.02520968413714
100.09621197294746
100.35906354344026
101.29908398752391
104.48916500845554
114.39246290307958
139.90996897420393
139.9099754477177
114.39247031467161
104.48916268819386
101.29908412750933
100.35906460709886
100.09621221971804
100.02520988526075
100.00649495695254
100.00165154572313
100.00041572610343
100.00010395306842
100.00002602429967
100.00000669727812
100.00000193947218
100.00000078871949
100.00000056915546
100.00000077379845
100.00000190301955
100.00000662809857
100.00002591061347
100.00010378752066
100.000415508037
100.00165127989712
100.00649465998242
100.02520950608552
100.09621194010411
100.35906362711738
101.29908447915139
104.48916187801804
114.3924585578338
139.90996676610294
139.90996515986262
114.39246954939924
104.48915946325012
101.29908432504858
100.35906333496209
100.0962119994693
100.02520953690043
100.00649468311587
100.00165127599902
100.00041546243948
100.00010369918868
100.00002578051523
100.00000646322793
100.00000171347793
100.00000056915542
100.00000035575879
100.0000005691559
100.00000171347831
100.00000646323983
100.00002578053822
100.0001036991257
100.00041546314247
100.00165127479148
100.00649469087901
100.02520955019014
100.09621196820866
100.35906362321774
101.29908389934218
104.48916828507222
114.3924556683833
139.90997428056684
139.90997218531845
114.39244105295846
104.48916610449201
101.29908688579506
100.3590634812553
100.096212109527
100.0252094998057
100.00649466435172
100.00165127975059
100.00041550843908
100.00010378770568
100.00002591060395
100.00000662811885
100.00000190301968
100.0000007737989
100.00000056915631
100.00000078872033
100.00000193946822
100.00000669728189
100.0000260242558
100.00010395296812
100.00041572608613
100.00165154419074
100.0064949570041
100.02520983893018
100.09621229092689
100.35906409202678
101.29908320054903
104.48916596204954
114.39245179745606
139.9099659803741
139.90999012568022
114.39244857740253
104.48916927721521
101.29908331645754
100.3590636124732
100.09621188986397
100.02520964769455
100.00649492114526
100.00165168029076
100.00041608775929
100.00010454700089
100.00002682574205
100.00000765551954
100.00000299801518
100.00000190302256
100.00000171348158
100.00000193947068
100.0000030936102
100.00000785406749
100.000027183537
100.00010511473751
100.00041689022883
100.0016527113537
100.00649612329
100.02521099986834
100.09621344389477
100.35906502622198
101.29908606352603
104.48916533450377
114.39245714280109
139.90997311093648
139.90995314330775
114.3924585140082
104.48917295783983
101.2990826381792
100.35906404547801
100.09621233306184
100.02521055148826
100.00649639073377
100.00165389277323
100.00041907009982
100.00010821915055
100.00003101097202
100.0000121543151
100.00000765552556
100.00000662810669
100.0000064632281
100.00000669728234
100.00000785406921
100.00001261564242
100.00003194579253
100.00010987749069
100.00042165332525
100.00165747355379
100.00650089518844
100.0252157967657
100.0962183315088
100.35906976843499
101.29909094118314
104.48917223775607
114.39246590063847
139.90998736174103
139.9099720099889
114.39246967166632
104.48916276978116
101.29908436427165
100.35906489765817
100.096215470161
100.0252157824126
100.00650446063362
100.00166519983475
100.00043340630347
100.00012488529555
100.0000491281899
100.00003101096841
100.00002682577376
100.00002591065302
100.00002578056933
100.00002602427533
100.00002718357936
100.00003194583233
100.00005127624266
100.00012920809924
100.00044098413949
100.00167680295979
100.00652021893569
100.02523510074263
100.09623750770957
100.35908927970416
101.29910871884427
104.48918975560831
114.39248244392611
139.9100167782545
139.909967910731
114.39247225900597
104.48916115526464
101.29908985795815
100.3590743075567
100.09623290515302
100.02524436068562
100.00654646986087
100.0017203602063
100.00049905396655
100.00019721315765
100.00012488526325
100.00010821930486
100.000104547114
100.00010378749394
100.00010369919298
100.00010395314412
100.00010511475956
100.00010987752887
100.00012920806923
100.00020713996457
100.00051891572983
100.00175473696704
100.00659815915924
100.02531306466994
100.09631544028146
100.35916729722756
101.29918772358388
104.48927209084933
114.39258092720169
139.91016311087887
139.9099591297523
114.39243450842952
104.48917597675583
101.29911552852039
100.35913094085386
100.0963316479319
100.02539685990686
100.00675516540718
100.00197583954987
100.00078508251062
100.00049905395232
100.000433406158
100.00041906920222
100.00041608741259
100.0004155082274
100.00041546279218
100.00041572625241
100.00041688988213
100.00042165301765
100.00044098367796
100.00051891566733
100.00083069140021
100.00206651259556
100.00690993548795
100.02562483219386
100.09662741283601
100.3594792854575
101.2995019899605
104.48959636324183
114.39295218838375
139.91077568425493
139.91001335969744
114.39249167086768
104.48926871522946
101.29929094769913
100.35945833420526
100.0968695844485
100.02617042550833
100.007735009119
100.00309421942579
100.0019758465431
100.00172036171776
100.00166520276382
100.00165389816682
100.00165168650561
100.0016512854579
100.00165127859027
100.0016515492997
100.0016527143536
100.00165747794249
100.00167680881313
100.0017547406594
100.00206651662276
100.00330233890284
100.00814576753572
100.0268606657509
100.09786336303667
100.360716214907
101.30074422528405
104.49086895343181
114.39438420918204
139.9131078979664
139.91005132869893
114.39271365980494
104.48975982607327
101.30032279573436
100.36128890171685
100.09966315704719
100.02986061503847
100.01204746633266
100.00773499948654
100.00675517618618
100.00654648301284
100.00650447850923
100.00649641359084
100.00649492503403
100.00649467429064
100.00649469763218
100.0064949745442
100.00649614002936
100.00650090398966
100.00652023430072
100.00659816626649
100.006909944604
100.00814577557256
100.01298923837932
100.03170436995386
100.10270797060488
100.36556603815764
101.30562068268343
104.4958835351689
114.40011677659554
139.92237306075856
139.91055575283053
114.39405544845775
104.49281081650082
101.30625963066687
100.37104485162389
100.11324464334618
100.04620258457577
100.02986059616356
100.02617043031286
100.02539692611892
100.02524441290655
100.02521576865718
100.02521058598013
100.02520968465733
100.02520955139622
100.0252095879965
100.02520986750729
100.02521103645945
100.02521580306859
100.02523513355962
100.0253130656019
100.0256248545436
100.02686072685877
100.03170438205245
100.05042042168274
100.12142843877514
100.38430824568671
101.32447275983507
104.51529111355208
114.422324755905
139.95819041601715
139.91372504898732
114.40230548492237
104.51087531211522
101.33884467930206
100.4195490703115
100.17380041244084
100.11324460960915
100.09966320424866
100.09686960218743
100.09633154601325
100.09623292882713
100.09621553013389
100.09621252237098
100.09621202036922
100.09621196503791
100.09621202321308
100.09621229769198
100.09621346889652
100.09621822509646
100.09623755527315
100.09631551082465
100.09662736124614
100.097863449289
100.10270807559581
100.12142845619371
100.19245657267093
100.4554313265441
101.39605575818325
104.58913489638675
114.50716584866841
140.0943663381426
139.93360168116794
114.4524972951873
104.61308805473189
101.5051286080765
100.63734607247333
100.41954924368335
100.37104482111504
100.36128797127463
100.35945778463386
100.35913091557892
100.35907462833543
100.3590651174867
100.35906360721185
100.35906343191283
100.35906332065638
100.35906337615226
100.35906369028154
100.35906488786523
100.35906964468984
100.359088968532
100.35916700033205
100.35947908943166
100.36071637339917
100.36556602510437
100.38430799576305
100.45543096833806
100.71883068151115
101.66140534073999
104.86360935555967
114.82416124888404
140.59969222009826
140.05525611893444
114.74467402234546
105.15062271512957
102.25648974583616
101.50513334806764
101.33884578772472
101.30626210383517
101.30032517706023
101.29929377213024
101.29912068208559
101.2990924546732
101.29908763068602
101.29908685183104
101.29908683032117
101.29908689043573
101.29908687626151
101.29908718471052
101.29908823780507
101.29909300371516
101.2991125769745
101.29919106865137
101.29950461879947
101.30074805850278
101.30562388718495
101.32447519646377
101.39605778975779
101.66140786360606
102.61236227275363
105.85120992858694
115.97211151704853
142.4079608491159
140.7730041114244
116.32886045876175
107.58568685234805
105.15061714210509
104.6130956893659
104.51088270044825
104.49282057403444
104.48976898282014
104.48926766012923
104.48918737284079
104.48917377755994
104.48917232233012
104.48917266941868
104.48917175749449
104.48917176705586
104.48917209592098
104.48917257746609
104.48917374857851
104.48917852832872
104.48919857859525
104.48927855089285
104.48960057223596
104.49087779776353
104.49589013659815
104.51529833009702
104.58913902941511
104.8636139752269
105.85121596007147
109.23524596033836
119.93454751380963
148.496940787986
144.71238555801665
123.43567275076101
116.32885570776907
114.74467064199266
114.45252197849838
114.40233153184184
114.39404905581969
114.39271423434685
114.39250561775769
114.39247335550048
114.39246717058904
114.3924656432808
114.39246571754761
114.392466989653
114.39246623131434
114.39246612132797
114.39246553442804
114.39246715402155
114.39247377488098
114.39249668941311
114.39258754194817
114.39295234841009
114.39440626547295
114.40012525512876
114.42233477248551
114.50717184404657
114.8241634455791
115.97212894476833
119.934551464729
132.48610243210808
166.63680180984596
161.3939308883046
144.7123728084674
140.7730000458146
140.0552575160182
139.93359585027358
139.91373090214856
139.91056046539742
139.9100654695228
139.90998591587902
139.9099709148614
139.90997126025556
139.90997246105388
139.90997153243606
139.90997005326116
139.90997115782488
139.90997110063483
139.90997303597263
139.90997573515497
139.90998359396116
139.91001888330365
139.91016781954656
139.91076381478626
139.91312176822188
139.92237519644473
139.95818910752018
140.09436711972552
140.59968441824074
142.4079682558653
148.49693466004697
166.63679044671625
207.23308221956617
