# vtk DataFile Version 2.0
Unstructured Grid Example
ASCII
DATASET UNSTRUCTURED_GRID

POINTS 961 float
0.150000006 -0.00839745998 0
0.146666661 -0.00839745998 0
0.143333331 -0.00839745998 0
0.140000001 -0.00839745998 0
0.13666667 -0.00839745998 0
0.13333334 -0.00839745998 0
0.129999995 -0.00839745998 0
0.126666665 -0.00839745998 0
0.123333335 -0.00839745998 0
0.119999997 -0.00839745998 0
0.116666667 -0.00839745998 0
0.113333337 -0.00839745998 0
0.109999999 -0.00839745998 0
0.106666669 -0.00839745998 0
0.103333332 -0.00839745998 0
0.100000001 -0.00839745998 0
0.0966666639 -0.00839745998 0
0.0933333337 -0.00839745998 0
0.0900000036 -0.00839745998 0
0.086666666 -0.00839745998 0
0.0833333358 -0.00839745998 0
0.0799999982 -0.00839745998 0
0.0766666681 -0.00839745998 0
0.0733333305 -0.00839745998 0
0.0700000003 -0.00839745998 0
0.0666666701 -0.00839745998 0
0.0633333325 -0.00839745998 0
0.0599999987 -0.00839745998 0
0.0566666685 -0.00839745998 0
0.0533333346 -0.00839745998 0
0.0500000007 -0.00839745998 0
0.148333326 -0.0112842107 0
0.144999996 -0.0112842107 0
0.141666666 -0.0112842107 0
0.138333336 -0.0112842107 0
0.135000005 -0.0112842107 0
0.13166666 -0.0112842107 0
0.12833333 -0.0112842107 0
0.125 -0.0112842107 0
0.12166667 -0.0112842107 0
0.118333332 -0.0112842107 0
0.115000002 -0.0112842107 0
0.111666664 -0.0112842107 0
0.108333334 -0.0112842107 0
0.104999997 -0.0112842107 0
0.101666667 -0.0112842107 0
0.0983333364 -0.0112842107 0
0.0949999988 -0.0112842107 0
0.0916666687 -0.0112842107 0
0.088333331 -0.0112842107 0
0.0850000009 -0.0112842107 0
0.0816666633 -0.0112842107 0
0.0783333331 -0.0112842107 0
0.075000003 -0.0112842107 0
0.0716666654 -0.0112842107 0
0.0683333352 -0.0112842107 0
0.0649999976 -0.0112842107 0
0.0616666675 -0.0112842107 0
0.0583333336 -0.0112842107 0
0.0549999997 -0.0112842107 0
0.0516666658 -0.0112842107 0
0.0483333319 -0.0112842107 0
0.146666661 -0.0141709624 0
0.143333331 -0.0141709624 0
0.140000001 -0.0141709624 0
0.13666667 -0.0141709624 0
0.13333334 -0.0141709624 0
0.129999995 -0.0141709624 0
0.126666665 -0.0141709624 0
0.123333335 -0.0141709624 0
0.119999997 -0.0141709624 0
0.116666667 -0.0141709624 0
0.113333337 -0.0141709624 0
0.109999999 -0.0141709624 0
0.106666669 -0.0141709624 0
0.103333332 -0.0141709624 0
0.100000001 -0.0141709624 0
0.0966666639 -0.0141709624 0
0.0933333337 -0.0141709624 0
0.0900000036 -0.0141709624 0
0.086666666 -0.0141709624 0
0.0833333358 -0.0141709624 0
0.0799999982 -0.0141709624 0
0.0766666681 -0.0141709624 0
0.0733333305 -0.0141709624 0
0.0700000003 -0.0141709624 0
0.0666666701 -0.0141709624 0
0.0633333325 -0.0141709624 0
0.0599999987 -0.0141709624 0
0.0566666685 -0.0141709624 0
0.0533333346 -0.0141709624 0
0.0500000007 -0.0141709624 0
0.0466666669 -0.0141709624 0
0.144999996 -0.0170577131 0
0.141666666 -0.0170577131 0
0.138333336 -0.0170577131 0
0.135000005 -0.0170577131 0
0.13166666 -0.0170577131 0
0.12833333 -0.0170577131 0
0.125 -0.0170577131 0
0.12166667 -0.0170577131 0
0.118333332 -0.0170577131 0
0.115000002 -0.0170577131 0
0.111666664 -0.0170577131 0
0.108333334 -0.0170577131 0
0.104999997 -0.0170577131 0
0.101666667 -0.0170577131 0
0.0983333364 -0.0170577131 0
0.0949999988 -0.0170577131 0
0.0916666687 -0.0170577131 0
0.088333331 -0.0170577131 0
0.0850000009 -0.0170577131 0
0.0816666633 -0.0170577131 0
0.0783333331 -0.0170577131 0
0.075000003 -0.0170577131 0
0.0716666654 -0.0170577131 0
0.0683333352 -0.0170577131 0
0.0649999976 -0.0170577131 0
0.0616666675 -0.0170577131 0
0.0583333336 -0.0170577131 0
0.0549999997 -0.0170577131 0
0.0516666658 -0.0170577131 0
0.0483333319 -0.0170577131 0
0.0450000018 -0.0170577131 0
0.143333331 -0.0199444648 0
0.140000001 -0.0199444648 0
0.13666667 -0.0199444648 0
0.13333334 -0.0199444648 0
0.129999995 -0.0199444648 0
0.126666665 -0.0199444648 0
0.123333335 -0.0199444648 0
0.119999997 -0.0199444648 0
0.116666667 -0.0199444648 0
0.113333337 -0.0199444648 0
0.109999999 -0.0199444648 0
0.106666669 -0.0199444648 0
0.103333332 -0.0199444648 0
0.100000001 -0.0199444648 0
0.0966666639 -0.0199444648 0
0.0933333337 -0.0199444648 0
0.0900000036 -0.0199444648 0
0.086666666 -0.0199444648 0
0.0833333358 -0.0199444648 0
0.0799999982 -0.0199444648 0
0.0766666681 -0.0199444648 0
0.0733333305 -0.0199444648 0
0.0700000003 -0.0199444648 0
0.0666666701 -0.0199444648 0
0.0633333325 -0.0199444648 0
0.0599999987 -0.0199444648 0
0.0566666685 -0.0199444648 0
0.0533333346 -0.0199444648 0
0.0500000007 -0.0199444648 0
0.0466666669 -0.0199444648 0
0.043333333 -0.0199444648 0
0.141666666 -0.0228312165 0
0.138333336 -0.0228312165 0
0.135000005 -0.0228312165 0
0.13166666 -0.0228312165 0
0.12833333 -0.0228312165 0
0.125 -0.0228312165 0
0.12166667 -0.0228312165 0
0.118333332 -0.0228312165 0
0.115000002 -0.0228312165 0
0.111666664 -0.0228312165 0
0.108333334 -0.0228312165 0
0.104999997 -0.0228312165 0
0.101666667 -0.0228312165 0
0.0983333364 -0.0228312165 0
0.0949999988 -0.0228312165 0
0.0916666687 -0.0228312165 0
0.088333331 -0.0228312165 0
0.0850000009 -0.0228312165 0
0.0816666633 -0.0228312165 0
0.0783333331 -0.0228312165 0
0.075000003 -0.0228312165 0
0.0716666654 -0.0228312165 0
0.0683333352 -0.0228312165 0
0.0649999976 -0.0228312165 0
0.0616666675 -0.0228312165 0
0.0583333336 -0.0228312165 0
0.0549999997 -0.0228312165 0
0.0516666658 -0.0228312165 0
0.0483333319 -0.0228312165 0
0.0450000018 -0.0228312165 0
0.0416666679 -0.0228312165 0
0.140000001 -0.0257179681 0
0.13666667 -0.0257179681 0
0.13333334 -0.0257179681 0
0.129999995 -0.0257179681 0
0.126666665 -0.0257179681 0
0.123333335 -0.0257179681 0
0.119999997 -0.0257179681 0
0.116666667 -0.0257179681 0
0.113333337 -0.0257179681 0
0.109999999 -0.0257179681 0
0.106666669 -0.0257179681 0
0.103333332 -0.0257179681 0
0.100000001 -0.0257179681 0
0.0966666639 -0.0257179681 0
0.0933333337 -0.0257179681 0
0.0900000036 -0.0257179681 0
0.086666666 -0.0257179681 0
0.0833333358 -0.0257179681 0
0.0799999982 -0.0257179681 0
0.0766666681 -0.0257179681 0
0.0733333305 -0.0257179681 0
0.0700000003 -0.0257179681 0
0.0666666701 -0.0257179681 0
0.0633333325 -0.0257179681 0
0.0599999987 -0.0257179681 0
0.0566666685 -0.0257179681 0
0.0533333346 -0.0257179681 0
0.0500000007 -0.0257179681 0
0.0466666669 -0.0257179681 0
0.043333333 -0.0257179681 0
0.0399999991 -0.0257179681 0
0.138333336 -0.0286047198 0
0.135000005 -0.0286047198 0
0.13166666 -0.0286047198 0
0.12833333 -0.0286047198 0
0.125 -0.0286047198 0
0.12166667 -0.0286047198 0
0.118333332 -0.0286047198 0
0.115000002 -0.0286047198 0
0.111666664 -0.0286047198 0
0.108333334 -0.0286047198 0
0.104999997 -0.0286047198 0
0.101666667 -0.0286047198 0
0.0983333364 -0.0286047198 0
0.0949999988 -0.0286047198 0
0.0916666687 -0.0286047198 0
0.088333331 -0.0286047198 0
0.0850000009 -0.0286047198 0
0.0816666633 -0.0286047198 0
0.0783333331 -0.0286047198 0
0.075000003 -0.0286047198 0
0.0716666654 -0.0286047198 0
0.0683333352 -0.0286047198 0
0.0649999976 -0.0286047198 0
0.0616666675 -0.0286047198 0
0.0583333336 -0.0286047198 0
0.0549999997 -0.0286047198 0
0.0516666658 -0.0286047198 0
0.0483333319 -0.0286047198 0
0.0450000018 -0.0286047198 0
0.0416666679 -0.0286047198 0
0.038333334 -0.0286047198 0
0.13666667 -0.0314914696 0
0.13333334 -0.0314914696 0
0.129999995 -0.0314914696 0
0.126666665 -0.0314914696 0
0.123333335 -0.0314914696 0
0.119999997 -0.0314914696 0
0.116666667 -0.0314914696 0
0.113333337 -0.0314914696 0
0.109999999 -0.0314914696 0
0.106666669 -0.0314914696 0
0.103333332 -0.0314914696 0
0.100000001 -0.0314914696 0
0.0966666639 -0.0314914696 0
0.0933333337 -0.0314914696 0
0.0900000036 -0.0314914696 0
0.086666666 -0.0314914696 0
0.0833333358 -0.0314914696 0
0.0799999982 -0.0314914696 0
0.0766666681 -0.0314914696 0
0.0733333305 -0.0314914696 0
0.0700000003 -0.0314914696 0
0.0666666701 -0.0314914696 0
0.0633333325 -0.0314914696 0
0.0599999987 -0.0314914696 0
0.0566666685 -0.0314914696 0
0.0533333346 -0.0314914696 0
0.0500000007 -0.0314914696 0
0.0466666669 -0.0314914696 0
0.043333333 -0.0314914696 0
0.0399999991 -0.0314914696 0
0.0366666652 -0.0314914696 0
0.135000005 -0.0343782231 0
0.13166666 -0.0343782231 0
0.12833333 -0.0343782231 0
0.125 -0.0343782231 0
0.12166667 -0.0343782231 0
0.118333332 -0.0343782231 0
0.115000002 -0.0343782231 0
0.111666664 -0.0343782231 0
0.108333334 -0.0343782231 0
0.104999997 -0.0343782231 0
0.101666667 -0.0343782231 0
0.0983333364 -0.0343782231 0
0.0949999988 -0.0343782231 0
0.0916666687 -0.0343782231 0
0.088333331 -0.0343782231 0
0.0850000009 -0.0343782231 0
0.0816666633 -0.0343782231 0
0.0783333331 -0.0343782231 0
0.075000003 -0.0343782231 0
0.0716666654 -0.0343782231 0
0.0683333352 -0.0343782231 0
0.0649999976 -0.0343782231 0
0.0616666675 -0.0343782231 0
0.0583333336 -0.0343782231 0
0.0549999997 -0.0343782231 0
0.0516666658 -0.0343782231 0
0.0483333319 -0.0343782231 0
0.0450000018 -0.0343782231 0
0.0416666679 -0.0343782231 0
0.038333334 -0.0343782231 0
0.0350000001 -0.0343782231 0
0.13333334 -0.0372649729 0
0.129999995 -0.0372649729 0
0.126666665 -0.0372649729 0
0.123333335 -0.0372649729 0
0.119999997 -0.0372649729 0
0.116666667 -0.0372649729 0
0.113333337 -0.0372649729 0
0.109999999 -0.0372649729 0
0.106666669 -0.0372649729 0
0.103333332 -0.0372649729 0
0.100000001 -0.0372649729 0
0.0966666639 -0.0372649729 0
0.0933333337 -0.0372649729 0
0.0900000036 -0.0372649729 0
0.086666666 -0.0372649729 0
0.0833333358 -0.0372649729 0
0.0799999982 -0.0372649729 0
0.0766666681 -0.0372649729 0
0.0733333305 -0.0372649729 0
0.0700000003 -0.0372649729 0
0.0666666701 -0.0372649729 0
0.0633333325 -0.0372649729 0
0.0599999987 -0.0372649729 0
0.0566666685 -0.0372649729 0
0.0533333346 -0.0372649729 0
0.0500000007 -0.0372649729 0
0.0466666669 -0.0372649729 0
0.043333333 -0.0372649729 0
0.0399999991 -0.0372649729 0
0.0366666652 -0.0372649729 0
0.0333333351 -0.0372649729 0
0.13166666 -0.0401517227 0
0.12833333 -0.0401517227 0
0.125 -0.0401517227 0
0.12166667 -0.0401517227 0
0.118333332 -0.0401517227 0
0.115000002 -0.0401517227 0
0.111666664 -0.0401517227 0
[...]
POINT_DATA 961
SCALARS Temp float 1
LOOKUP_TABLE default
337.9510265889931
288.0609830210672
250.1379438045442
224.1601637685457
207.73509430306603
198.10594198690433
192.84526067448363
190.15161319351617
188.8511463705982
188.25563624763055
187.99554568739546
187.88665527118457
187.8427569966122
187.82564939210897
187.81918374328308
187.81680646784858
187.81596390248868
187.8157065237544
187.81577299315862
187.81637479102565
187.81866774013056
187.82660418055855
187.8524634097344
187.9315574817122
188.15696370843682
188.750912723805
190.18701012503757
193.35169167487453
199.67614244022002
211.1180127278988
230.23531977504646
288.0609995765103
241.4227299740518
208.19467079666288
186.20410578559887
172.7233565159701
165.0387454977656
160.94489805874937
158.89504894718468
157.92466480868308
157.48787891191557
157.29995553881895
157.22230464880883
157.19136053021055
157.1794242181696
157.17495288883256
157.17332811505813
157.17276988937184
157.1726568685218
157.1729301189537
157.1741686940223
157.17859375652057
157.19335949126338
157.2397316316503
157.3759618740936
157.74766319100937
158.68262132923294
160.83553784574804
165.34715903746144
173.91605386335755
188.6530214986772
211.11803123507
250.13790499332237
208.19465606830946
178.84606331190986
159.7494427422827
148.1871302177412
141.65436249857163
138.19480810061125
136.46877085124208
135.65311532997808
135.2861317290063
135.12816076920663
135.06281348474533
135.0367337626708
135.02665743886408
135.02287855393203
135.02150719441858
135.02105790149486
135.02105945326227
135.0216454298184
135.02392764511438
135.03173874544623
135.05683941376606
135.13256521544338
135.34570950486997
135.90157708469653
137.2356891378601
140.164338838329
146.01478684976385
156.6103260044632
173.91604421208825
199.67614977674896
224.16012211566408
186.20408865709567
159.7494474999526
142.55629733662624
132.13330444953706
126.22599992208671
123.08430795399333
121.50923539026859
120.76116585439436
120.42292941797932
120.27665241410787
120.21588353261899
120.19153678920894
120.18209698510647
120.17854910320195
120.17726784544533
120.17688443421098
120.177031503539
120.17809788467187
120.18195103865534
120.19461643031298
120.23372666762351
120.34686115158075
120.65162845573765
121.41145281185162
123.15443214700717
126.81449683930707
133.8213557754408
146.01479905538295
165.34717110563892
193.35168356447213
207.73506447755892
172.72334569639145
148.18712723582092
132.13334290752607
122.33195157781299
116.73865992472184
113.74507177789562
112.23576328402537
111.51540958157342
111.18833504399235
111.04638127799389
110.98723124536058
110.96347340517718
110.9542438813878
110.95077151186044
110.94953046600367
110.94921485191958
110.94957212267835
110.95132624317303
110.95732459035204
110.97625642198129
111.03235466023911
111.18788727245938
111.58921648462149
112.5480024170987
114.65880351035922
118.92437142939376
126.81449176101086
140.16433548837804
160.83553520795073
190.18701660205178
198.10591578903288
165.03876713218722
141.65439080205573
126.22597708823363
116.7386517520959
111.29237071498356
108.36349359732782
106.88117963910004
106.17157835091828
105.84861802203146
105.7081872177871
105.64958421918257
105.62601810863302
105.61685611765179
105.6134127084706
105.61220384243339
105.611975664509
105.61261906199661
105.61527102053391
105.62391600861162
105.65011255490455
105.72462249622816
105.9228997056706
106.41440792161053
107.54477870850826
109.94812728000925
114.65880213898001
123.15443312157632
137.23569565952118
158.68260271524923
188.75090454800556
192.84526270769982
160.9449123443422
138.1948408715654
123.08428082007745
113.74506295308674
108.36349197659916
105.46134349147853
103.98955936432188
103.28393515187986
102.96242606857848
102.82250963844812
102.76408448332208
102.74057943891906
102.7314396024213
102.72801219378432
102.72683936296004
102.72672523275337
102.72772688157583
102.73144223500506
102.74303379634752
102.77679082418115
102.86913608588195
103.10580371199784
103.67218975358223
104.93411500442456
107.54477698609891
112.54799814608718
121.41144598558976
135.90157400353496
157.74766049189455
188.1569729275855
190.1516239591941
158.89506852846876
136.46872545829007
121.50921305159947
112.23576049691697
106.88118395028604
103.98955852407316
102.52170272539213
101.81749008357596
101.49647509499289
101.35672619766675
101.29835720206927
101.27487143090643
101.26574122987186
101.26232874959445
101.2611994504961
101.26122236903632
101.26263263744632
101.2674882700916
101.28203573510962
101.32285833129136
101.43067101909364
101.69815007827226
102.3200722982066
103.67218906765207
106.41440709976914
111.58921696473612
120.651629035954
135.34569770744403
157.37594379771096
187.93154783050252
188.85114894710068
157.9246925778599
135.65307273521788
120.76115049076267
111.51540994428719
106.17157437729915
103.28393475863098
101.81749194292189
101.11376448952693
100.79291210520317
100.6532163485069
100.59486489722241
100.57138574904431
100.56226198128546
100.55886589661867
100.55778718479958
100.55796105848992
100.55979485593372
100.56575711515411
100.5829783023773
100.62973761651841
100.74959046197444
101.03925376016731
101.6981506459691
103.10580354900965
105.92289895194956
111.18788639701587
120.34685775878653
135.1325684412267
157.23973732800872
187.85248156511673
188.25566406714273
157.487816240354
135.28611224612425
120.4229273854369
111.18834386295082
105.84861773952122
102.96242824827891
101.49647497767998
100.79291193254215
100.47211113785248
100.3324323392769
100.2740864904633
100.25061064617665
100.24149309887122
100.23811507870248
100.23709026692323
100.23741580200397
100.23964819573501
100.24658217712474
100.26598675500334
100.31724216597118
100.4455372833173
100.74959014889261
101.43067082553328
102.8691360816887
105.72462238284298
111.0323548967838
120.23371435965004
135.05682682261795
157.19334372869295
187.82659494865112
187.99560106649133
157.29990873473528
135.12815248038848
120.27665709583987
111.04637668115645
105.70818842722566
102.82251280704435
101.3567262401588
100.65321671032795
100.33243232583203
100.19275889261154
100.13441523529717
100.11094206807289
100.10183104746626
100.09847185636197
100.09749974326306
100.09796415415663
100.10053734905267
100.10824455585725
100.12926211349729
100.18359587846874
100.31724235444193
100.62973771944839
101.3228580020154
102.7767901965413
105.65011177961793
110.97625422756175
120.19461528474174
135.03174289102537
157.17860197178038
187.81865467482183
187.8866003279232
157.22227739481832
135.0628143622034
120.21589464201047
110.9872272884664
105.6495862681285
102.7640831503506
101.29835745303734
100.5948642695743
100.27408650244959
100.13441534247272
100.07607338140335
100.05260311111574
100.04349898981353
100.04015805861434
100.03923325035484
100.03981368947244
100.04265185657272
100.05091768818177
100.07301633749147
100.12926223772754
100.26598686833582
100.58297817086527
101.2820363369879
102.74303498867216
105.62391905834242
110.95732178250037
120.18194688958167
135.0239284700997
157.1741698079379
187.81638848942984
187.84273515830387
157.19136024216118
135.03675110300586
120.19152959111172
110.96347514773137
105.62602422482239
102.74057907060012
101.2748725832628
100.57138539990132
100.25061079091573
100.11094200366907
100.05260307904027
100.02913690840113
100.02004041747911
100.01671640924418
100.01583094964609
100.01650018968478
100.01952625172898
100.02815951994432
100.05091761996037
100.10824452853564
100.24658233843937
100.56575663512864
101.26748805610387
102.73144173455265
105.61526987419946
110.95132521199976
120.17809667519998
135.0216508175059
157.17290833700307
187.81577599799635
187.82563192372643
157.17942600515326
135.02667858388415
120.1820892431455
110.95424596533189
105.61685291058328
102.73143965176192
101.26574041792561
100.56226177420437
100.24149333602499
100.10183095729772
100.04349897925101
100.02004041132753
100.01095380621369
100.00764591943773
100.00679168515514
100.00752385630707
100.01067206085784
100.01952624288772
100.04265187368982
100.10053732973121
100.2396482928409
100.55979481303959
101.26263325412522
102.72772827847915
105.61261756195323
110.94956966424915
120.17702797553261
135.0210599178697
157.17266048318322
187.81570623189404
187.81918461955775
157.17497171265896
135.0228677192162
120.1785491620968
110.95078043834378
105.61341164513475
102.72801443919275
101.2623284715695
100.55886586634328
100.23811502976625
100.09847184709727
100.04015808064021
100.01671640317863
100.00764592377101
100.00435599264648
100.00352721814807
100.0043019679973
100.00752385199064
100.01650017569601
100.03981366357912
100.09796416093735
100.23741573251772
100.55796062274898
101.26122215082349
102.7267245862475
105.61197519084631
110.94921434341545
120.17688412547399
135.0210452119981
157.17276648181442
187.8159565542936
187.81680633774752
157.17334826038854
135.0214955191013
120.17726924461451
110.94952405586508
105.61220344963334
102.72683748989691
101.26119947815828
100.5577874060639
100.23709019482258
100.09749975171466
100.03923319654882
100.01583094992199
100.00679167792083
100.00352721810387
100.00272278796594
100.00352721968366
100.00679168032738
100.01583096570172
100.03923322050181
100.09749971640119
100.23709038333149
100.55778717164982
101.26120015833189
102.72683856500625
105.61220249649328
110.94952916202794
120.17726457896143
135.02151160770296
157.17331954996538
187.81680945851667
187.81598260663188
157.1727465717793
135.02106266891886
120.17689764453836
110.94921249986504
105.61197941619815
102.72672462022902
101.26122289909203
100.55796061900864
100.23741591125209
100.09796426178274
100.03981365890493
100.01650020763005
100.00752385343623
100.00430196947248
100.0035272209589
100.00435599532477
100.00764591489089
100.01671640825406
100.04015804089661
100.0984717703607
100.2381150212659
100.55886549561204
101.26232840760392
102.72801211738427
105.61341257077227
110.95077190865453
120.17853677398473
135.02287622880232
157.17493817563562
187.81917566485433
187.81573702876855
157.17263939240047
135.02106788089995
120.17701930334437
110.94957121749763
105.61261527813265
102.72772679332012
101.2626336927304
100.55979437504831
100.23964836945305
100.10053727091417
100.04265183501703
100.01952623668564
100.0106720567005
100.00752385916594
100.0067916864624
100.00764592038368
100.01095381224216
100.02004042018687
100.0434989623117
100.10183103247161
100.24149321541401
100.56226206228988
101.26574086775382
102.73143899529194
105.6168552473193
110.95424185342826
120.18209635718934
135.0266503511629
157.17941592172997
187.82565020834878
187.81574147352845
157.17292084971646
135.02166026659324
120.17808578188301
110.95132778721303
105.61526721620027
102.73144186669722
101.26748737050876
100.56575673476311
100.2465824400691
100.10824445981022
100.05091767364614
100.02815951163218
100.01952624711548
100.01650018897303
100.01583094895543
100.01671640680767
100.02004042310386
100.02913689925643
100.05260306799877
100.11094204854425
100.25061074180108
100.57138562657192
101.27487195187204
102.74058056772492
105.62602109881745
110.9634703415393
120.19153845988444
135.03673333390523
157.19136007802575
187.8427662048912
187.816368302797
157.1741805361983
135.02391322990587
120.18194855484266
110.95731714661439
105.62391607614678
102.74303582309113
101.28203542020877
100.58297835174983
100.26598674102851
100.12926215085159
100.0730163226487
100.05091767649327
100.04265186480748
100.03981369515084
100.03923325112932
100.04015806045774
100.04349899269636
100.05260310237965
100.07607341000116
100.13441528318306
100.27408661231824
100.59486441427347
101.29835697314618
102.76408394804456
105.64958309462912
110.98723018207052
120.21587431782311
135.06280641386346
157.22229500066894
187.88665529917932
187.8186631849712
157.17861050593118
135.03172379860007
120.19461852464171
110.97624923035981
105.65011203993897
102.77678882656603
101.32285824986104
100.6297379623377
100.31724220563126
100.1835960103879
100.12926210413521
100.10824454662892
100.10053734531023
100.09796414750669
100.09749974439583
100.0984718661178
100.10183104035178
100.1109420669137
100.13441525230564
100.19275886138381
100.33243240313911
100.65321634148202
101.35672683150828
102.82251085399672
105.70818542581554
111.04638194328724
120.27664778542422
135.1281602768213
157.29995532041684
187.9955423995394
187.82659880743478
157.19331678641655
135.05682839341114
120.23370638691937
111.03234972225655
105.7246240549632
102.8691343500331
101.43067124798989
100.7495899009683
100.44553710360205
100.31724213158465
100.26598672058527
100.24658219871911
100.23964822814052
100.23741580682257
100.2370902664546
100.23811507826927
100.24149309105307
100.25061065790011
100.27408646512717
100.33243238933365
100.47211117294079
100.79291167011525
101.496475313691
102.96242662666681
105.84862000639009
111.18833371451527
120.42292840296355
135.28613905488695
157.48788922217463
188.25565323420577
187.852507730324
157.23972704758822
135.13258574964652
120.34685771536435
111.18789203038993
105.92289938021187
103.10580588486272
101.69815233414987
101.03925429690022
100.74959146845202
100.62973828582955
100.58297891633632
100.56575771920512
100.55979543796984
100.55796168069256
100.5577878376807
100.55886649203647
100.56226261227037
100.57138636993946
100.5948654688063
100.65321694705945
100.7929124222448
101.11376510373262
101.81749104561788
103.28393303424126
106.17157682853015
111.51540410069464
120.76115610816672
135.6531069971367
157.9246385428023
188.85112917577345
187.93154053179893
157.37596663850428
135.34569870677194
120.6516293031121
111.589225419007
106.41440750483399
103.67219230393198
102.32007365209846
101.6981512608811
101.4306723429853
101.3228595805017
101.28203712889682
101.26748974672998
101.26263399532841
101.26122369679626
101.26120077150735
101.2623300651709
101.26574256866203
101.27487275476042
101.29835858384372
101.35672747121437
101.49647621684889
101.8174913825924
102.5217028718494
103.98956053779298
106.88117879280281
112.23576138294891
121.50922931545189
136.4687686454719
158.89504266732848
190.15160995415187
188.15695656405953
157.74767866036765
135.90156937458528
121.41145244873957
112.54799722944394
107.54478046213563
104.93411789661691
103.6721906909722
103.10580574197158
102.86913762255259
102.77679218140044
102.74303509929543
102.731443443833
102.72772825163571
102.72672671672011
102.72684064991806
102.7280136274914
102.73144098912108
102.74058075959098
102.76408587864941
102.82251093365063
102.96242754504635
103.28393601561203
103.98956038335021
105.46134723250951
108.36349221617492
113.7450712829532
123.08430826397618
138.19480470662748
160.94489423956693
192.84526481386717
188.75091187572326
158.68258774638744
137.23568488621783
123.15443891319002
114.65879771427973
109.94812913086564
107.5447781780769
106.41440745173308
105.92289959792434
105.72462224238126
105.65011274427319
105.62391653676032
105.61527118148523
105.6126191132228
105.61197567532054
105.61220388438792
105.61341279631571
105.61685622292038
105.62601837448038
105.64958423347778
105.7081873373178
105.84861835571613
106.17157825436679
106.88118092509657
108.36349188102632
111.29237343314821
116.73866489785462
126.22600760349125
141.65437216990816
165.03875053280908
198.10591914839733
190.18701592775844
160.83551108675323
140.16433172314947
126.8144796838814
118.92436823765141
114.65880057172978
112.54799663761662
111.58921292547909
111.18788322740912
111.03235017548671
110.97625175409576
110.95731959904509
110.95132172900276
110.9495679162379
110.94921013911112
110.94952616451606
110.95076706169759
110.95423928268555
110.96346895433028
110.98722679486943
111.04637688523503
111.18833028959465
111.51540563045619
112.23576072168844
113.74506752029099
116.73866096968032
122.33196408033079
132.13331165570412
148.1871042691142
172.72333201820192
207.73507089792025
193.35169304871548
165.34718163877363
146.0148287129092
133.82136827638308
126.81451653401867
123.15444727343184
121.41146747808789
120.65164332310025
120.34687552722198
120.23374202335157
120.19463257206316
120.18196635720435
120.17811290840223
120.17704639113464
120.17689951391314
120.1772829638375
120.17856427584827
120.18211249853695
120.19155169968103
120.21589874665871
120.27666775089943
120.42294426793093
120.76118108533369
121.50924869362674
123.0843229172381
126.22601902341053
132.1333296003932
142.55628128194854
159.74942132640987
186.20406337047459
224.16012766798661
199.6761586751784
173.91607487398946
156.61034046399217
146.01480996165014
140.1643605580286
137.23570572021
135.90159651116736
135.34572840736053
135.13258335126554
135.05685714568594
135.03175564094488
135.02394546968497
135.02166384115762
135.0210770179389
135.02107625402246
135.0215252214676
135.0228963101687
135.02667535458212
135.0367517848818
135.06283138267332
135.12817814722564
135.28615030021047
135.65313389149247
136.46878730024343
138.19482656205037
141.65438427567435
148.18711706571284
159.74942655367096
178.8460396772768
208.19463292798778
250.13791046070608
211.11803312220025
188.65304469676673
173.9160571738476
165.34717191116198
160.83554561260198
158.68262877742367
157.74767097736193
157.37596900537278
157.239740631213
157.19336947108218
157.17860233298398
157.17417685633413
157.17293804131702
157.17266537565655
157.17277829036914
157.17333661479674
157.17496186855834
157.17943220674516
157.19136912736235
157.2223132967361
157.29996377964488
157.48788717139263
157.92467228377998
158.89505786425872
160.94490905022076
165.03875929019972
172.72333761554285
186.2040747264203
208.19462892742152
241.42268838799006
288.0609188601303
230.2353359511742
211.1180076487331
199.67614749174328
193.3516958903717
190.18700801285567
188.75091430018358
188.15696428420443
187.93155872585822
187.8524641238887
187.82660235060015
187.81866763551162
187.8163751502057
187.81577308147385
187.81570722522923
187.81596417485483
187.81680674970838
187.81918324878447
187.82565000186528
187.84275702444594
187.88665476502442
187.99554651050366
188.2556371130367
188.85114629787202
190.15161373947691
192.8452608634744
198.1059152351256
207.73506627368246
224.16012268891313
250.13788963505735
288.0609011585177
337.95062613207057
