# vtk DataFile Version 2.0
Unstructured Grid Example
ASCII
DATASET UNSTRUCTURED_GRID

POINTS 961 float
0.150000006 -0.00839745998 0
0.146666661 -0.00839745998 0
0.143333331 -0.00839745998 0
0.140000001 -0.00839745998 0
0.13666667 -0.00839745998 0
0.13333334 -0.00839745998 0
0.129999995 -0.00839745998 0
0.126666665 -0.00839745998 0
0.123333335 -0.00839745998 0
0.119999997 -0.00839745998 0
0.116666667 -0.00839745998 0
0.113333337 -0.00839745998 0
0.109999999 -0.00839745998 0
0.106666669 -0.00839745998 0
0.103333332 -0.00839745998 0
0.100000001 -0.00839745998 0
0.0966666639 -0.00839745998 0
0.0933333337 -0.00839745998 0
0.0900000036 -0.00839745998 0
0.086666666 -0.00839745998 0
0.0833333358 -0.00839745998 0
0.0799999982 -0.00839745998 0
0.0766666681 -0.00839745998 0
0.0733333305 -0.00839745998 0
0.0700000003 -0.00839745998 0
0.0666666701 -0.00839745998 0
0.0633333325 -0.00839745998 0
0.0599999987 -0.00839745998 0
0.0566666685 -0.00839745998 0
0.0533333346 -0.00839745998 0
0.0500000007 -0.00839745998 0
0.148333326 -0.0112842107 0
0.144999996 -0.0112842107 0
0.141666666 -0.0112842107 0
0.138333336 -0.0112842107 0
0.135000005 -0.0112842107 0
0.13166666 -0.0112842107 0
0.12833333 -0.0112842107 0
0.125 -0.0112842107 0
0.12166667 -0.0112842107 0
0.118333332 -0.0112842107 0
0.115000002 -0.0112842107 0
0.111666664 -0.0112842107 0
0.108333334 -0.0112842107 0
0.104999997 -0.0112842107 0
0.101666667 -0.0112842107 0
0.0983333364 -0.0112842107 0
0.0949999988 -0.0112842107 0
0.0916666687 -0.0112842107 0
0.088333331 -0.0112842107 0
0.0850000009 -0.0112842107 0
0.0816666633 -0.0112842107 0
0.0783333331 -0.0112842107 0
0.075000003 -0.0112842107 0
0.0716666654 -0.0112842107 0
0.0683333352 -0.0112842107 0
0.0649999976 -0.0112842107 0
0.0616666675 -0.0112842107 0
0.0583333336 -0.0112842107 0
0.0549999997 -0.0112842107 0
0.0516666658 -0.0112842107 0
0.0483333319 -0.0112842107 0
0.146666661 -0.0141709624 0
0.143333331 -0.0141709624 0
0.140000001 -0.0141709624 0
0.13666667 -0.0141709624 0
0.13333334 -0.0141709624 0
0.129999995 -0.0141709624 0
0.126666665 -0.0141709624 0
0.123333335 -0.0141709624 0
0.119999997 -0.0141709624 0
0.116666667 -0.0141709624 0
0.113333337 -0.0141709624 0
0.109999999 -0.0141709624 0
0.106666669 -0.0141709624 0
0.103333332 -0.0141709624 0
0.100000001 -0.0141709624 0
0.0966666639 -0.0141709624 0
0.0933333337 -0.0141709624 0
0.0900000036 -0.0141709624 0
0.086666666 -0.0141709624 0
0.0833333358 -0.0141709624 0
0.0799999982 -0.0141709624 0
0.0766666681 -0.0141709624 0
0.0733333305 -0.0141709624 0
0.0700000003 -0.0141709624 0
0.0666666701 -0.0141709624 0
0.0633333325 -0.0141709624 0
0.0599999987 -0.0141709624 0
0.0566666685 -0.0141709624 0
0.0533333346 -0.0141709624 0
0.0500000007 -0.0141709624 0
0.0466666669 -0.0141709624 0
0.144999996 -0.0170577131 0
0.141666666 -0.0170577131 0
0.138333336 -0.0170577131 0
0.135000005 -0.0170577131 0
0.13166666 -0.0170577131 0
0.12833333 -0.0170577131 0
0.125 -0.0170577131 0
0.12166667 -0.0170577131 0
0.118333332 -0.0170577131 0
0.115000002 -0.0170577131 0
0.111666664 -0.0170577131 0
0.108333334 -0.0170577131 0
0.104999997 -0.0170577131 0
0.101666667 -0.0170577131 0
0.0983333364 -0.0170577131 0
0.0949999988 -0.0170577131 0
0.0916666687 -0.0170577131 0
0.088333331 -0.0170577131 0
0.0850000009 -0.0170577131 0
0.0816666633 -0.0170577131 0
0.0783333331 -0.0170577131 0
0.075000003 -0.0170577131 0
0.0716666654 -0.0170577131 0
0.0683333352 -0.0170577131 0
0.0649999976 -0.0170577131 0
0.0616666675 -0.0170577131 0
0.0583333336 -0.0170577131 0
0.0549999997 -0.0170577131 0
0.0516666658 -0.0170577131 0
0.0483333319 -0.0170577131 0
0.0450000018 -0.0170577131 0
0.143333331 -0.0199444648 0
0.140000001 -0.0199444648 0
0.13666667 -0.0199444648 0
0.13333334 -0.0199444648 0
0.129999995 -0.0199444648 0
0.126666665 -0.0199444648 0
0.123333335 -0.0199444648 0
0.119999997 -0.0199444648 0
0.116666667 -0.0199444648 0
0.113333337 -0.0199444648 0
0.109999999 -0.0199444648 0
0.106666669 -0.0199444648 0
0.103333332 -0.0199444648 0
0.100000001 -0.0199444648 0
0.0966666639 -0.0199444648 0
0.0933333337 -0.0199444648 0
0.0900000036 -0.0199444648 0
0.086666666 -0.0199444648 0
0.0833333358 -0.0199444648 0
0.0799999982 -0.0199444648 0
0.0766666681 -0.0199444648 0
0.0733333305 -0.0199444648 0
0.0700000003 -0.0199444648 0
0.0666666701 -0.0199444648 0
0.0633333325 -0.0199444648 0
0.0599999987 -0.0199444648 0
0.0566666685 -0.0199444648 0
0.0533333346 -0.0199444648 0
0.0500000007 -0.0199444648 0
0.0466666669 -0.0199444648 0
0.043333333 -0.0199444648 0
0.141666666 -0.0228312165 0
0.138333336 -0.0228312165 0
0.135000005 -0.0228312165 0
0.13166666 -0.0228312165 0
0.12833333 -0.0228312165 0
0.125 -0.0228312165 0
0.12166667 -0.0228312165 0
0.118333332 -0.0228312165 0
0.115000002 -0.0228312165 0
0.111666664 -0.0228312165 0
0.108333334 -0.0228312165 0
0.104999997 -0.0228312165 0
0.101666667 -0.0228312165 0
0.0983333364 -0.0228312165 0
0.0949999988 -0.0228312165 0
0.0916666687 -0.0228312165 0
0.088333331 -0.0228312165 0
0.0850000009 -0.0228312165 0
0.0816666633 -0.0228312165 0
0.0783333331 -0.0228312165 0
0.075000003 -0.0228312165 0
0.0716666654 -0.0228312165 0
0.0683333352 -0.0228312165 0
0.0649999976 -0.0228312165 0
0.0616666675 -0.0228312165 0
0.0583333336 -0.0228312165 0
0.0549999997 -0.0228312165 0
0.0516666658 -0.0228312165 0
0.0483333319 -0.0228312165 0
0.0450000018 -0.0228312165 0
0.0416666679 -0.0228312165 0
0.140000001 -0.0257179681 0
0.13666667 -0.0257179681 0
0.13333334 -0.0257179681 0
0.129999995 -0.0257179681 0
0.126666665 -0.0257179681 0
0.123333335 -0.0257179681 0
0.119999997 -0.0257179681 0
0.116666667 -0.0257179681 0
0.113333337 -0.0257179681 0
0.109999999 -0.0257179681 0
0.106666669 -0.0257179681 0
0.103333332 -0.0257179681 0
0.100000001 -0.0257179681 0
0.0966666639 -0.0257179681 0
0.0933333337 -0.0257179681 0
0.0900000036 -0.0257179681 0
0.086666666 -0.0257179681 0
0.0833333358 -0.0257179681 0
0.0799999982 -0.0257179681 0
0.0766666681 -0.0257179681 0
0.0733333305 -0.0257179681 0
0.0700000003 -0.0257179681 0
0.0666666701 -0.0257179681 0
0.0633333325 -0.0257179681 0
0.0599999987 -0.0257179681 0
0.0566666685 -0.0257179681 0
0.0533333346 -0.0257179681 0
0.0500000007 -0.0257179681 0
0.0466666669 -0.0257179681 0
0.043333333 -0.0257179681 0
0.0399999991 -0.0257179681 0
0.138333336 -0.0286047198 0
0.135000005 -0.0286047198 0
0.13166666 -0.0286047198 0
0.12833333 -0.0286047198 0
0.125 -0.0286047198 0
0.12166667 -0.0286047198 0
0.118333332 -0.0286047198 0
0.115000002 -0.0286047198 0
0.111666664 -0.0286047198 0
0.108333334 -0.0286047198 0
0.104999997 -0.0286047198 0
0.101666667 -0.0286047198 0
0.0983333364 -0.0286047198 0
0.0949999988 -0.0286047198 0
0.0916666687 -0.0286047198 0
0.088333331 -0.0286047198 0
0.0850000009 -0.0286047198 0
0.0816666633 -0.0286047198 0
0.0783333331 -0.0286047198 0
0.075000003 -0.0286047198 0
0.0716666654 -0.0286047198 0
0.0683333352 -0.0286047198 0
0.0649999976 -0.0286047198 0
0.0616666675 -0.0286047198 0
0.0583333336 -0.0286047198 0
0.0549999997 -0.0286047198 0
0.0516666658 -0.0286047198 0
0.0483333319 -0.0286047198 0
0.0450000018 -0.0286047198 0
0.0416666679 -0.0286047198 0
0.038333334 -0.0286047198 0
0.13666667 -0.0314914696 0
0.13333334 -0.0314914696 0
0.129999995 -0.0314914696 0
0.126666665 -0.0314914696 0
0.123333335 -0.0314914696 0
0.119999997 -0.0314914696 0
0.116666667 -0.0314914696 0
0.113333337 -0.0314914696 0
0.109999999 -0.0314914696 0
0.106666669 -0.0314914696 0
0.103333332 -0.0314914696 0
0.100000001 -0.0314914696 0
0.0966666639 -0.0314914696 0
0.0933333337 -0.0314914696 0
0.0900000036 -0.0314914696 0
0.086666666 -0.0314914696 0
0.0833333358 -0.0314914696 0
0.0799999982 -0.0314914696 0
0.0766666681 -0.0314914696 0
0.0733333305 -0.0314914696 0
0.0700000003 -0.0314914696 0
0.0666666701 -0.0314914696 0
0.0633333325 -0.0314914696 0
0.0599999987 -0.0314914696 0
0.0566666685 -0.0314914696 0
0.0533333346 -0.0314914696 0
0.0500000007 -0.0314914696 0
0.0466666669 -0.0314914696 0
0.043333333 -0.0314914696 0
0.0399999991 -0.0314914696 0
0.0366666652 -0.0314914696 0
0.135000005 -0.0343782231 0
0.13166666 -0.0343782231 0
0.12833333 -0.0343782231 0
0.125 -0.0343782231 0
0.12166667 -0.0343782231 0
0.118333332 -0.0343782231 0
0.115000002 -0.0343782231 0
0.111666664 -0.0343782231 0
0.108333334 -0.0343782231 0
0.104999997 -0.0343782231 0
0.101666667 -0.0343782231 0
0.0983333364 -0.0343782231 0
0.0949999988 -0.0343782231 0
0.0916666687 -0.0343782231 0
0.088333331 -0.0343782231 0
0.0850000009 -0.0343782231 0
0.0816666633 -0.0343782231 0
0.0783333331 -0.0343782231 0
0.075000003 -0.0343782231 0
0.0716666654 -0.0343782231 0
0.0683333352 -0.0343782231 0
0.0649999976 -0.0343782231 0
0.0616666675 -0.0343782231 0
0.0583333336 -0.0343782231 0
0.0549999997 -0.0343782231 0
0.0516666658 -0.0343782231 0
0.0483333319 -0.0343782231 0
0.0450000018 -0.0343782231 0
0.0416666679 -0.0343782231 0
0.038333334 -0.0343782231 0
0.0350000001 -0.0343782231 0
0.13333334 -0.0372649729 0
0.129999995 -0.0372649729 0
0.126666665 -0.0372649729 0
0.123333335 -0.0372649729 0
0.119999997 -0.0372649729 0
0.116666667 -0.0372649729 0
0.113333337 -0.0372649729 0
0.109999999 -0.0372649729 0
0.106666669 -0.0372649729 0
0.103333332 -0.0372649729 0
0.100000001 -0.0372649729 0
0.0966666639 -0.0372649729 0
0.0933333337 -0.0372649729 0
0.0900000036 -0.0372649729 0
0.086666666 -0.0372649729 0
0.0833333358 -0.0372649729 0
0.0799999982 -0.0372649729 0
0.0766666681 -0.0372649729 0
0.0733333305 -0.0372649729 0
0.0700000003 -0.0372649729 0
0.0666666701 -0.0372649729 0
0.0633333325 -0.0372649729 0
0.0599999987 -0.0372649729 0
0.0566666685 -0.0372649729 0
0.0533333346 -0.0372649729 0
0.0500000007 -0.0372649729 0
0.0466666669 -0.0372649729 0
0.043333333 -0.0372649729 0
0.0399999991 -0.0372649729 0
0.0366666652 -0.0372649729 0
0.0333333351 -0.0372649729 0
0.13166666 -0.0401517227 0
0.12833333 -0.0401517227 0
0.125 -0.0401517227 0
0.12166667 -0.0401517227 0
0.118333332 -0.0401517227 0
0.115000002 -0.0401517227 0
0.111666664 -0.0401517227 0
[...]
POINT_DATA 961
SCALARS Temp float 1
LOOKUP_TABLE default
166.93573816057142
137.21842496976421
128.30799115316933
126.29637264284709
125.83907034050613
125.73535742768925
125.71180029873375
125.70643417978445
125.705214634486
125.70493677344527
125.70487036188595
125.70485946040233
125.70485623401261
125.70485508850929
125.70485782649926
125.7048543113143
125.70485455706603
125.70485186280851
125.70485511954686
125.70485489976446
125.70485493161638
125.70485792709039
125.70485528283395
125.70486153750102
125.7049019961377
125.70522576174636
125.70763286846898
125.72595678820394
125.87164736890814
127.02652393875738
140.66766270630433
137.21843705281515
112.70348097869288
107.4189225090961
106.21581012019284
105.94308497092216
105.88111386420292
105.86701299292928
105.86380570357554
105.86307491832531
105.86290818051783
105.86287180667956
105.86286169878264
105.86285944448969
105.86285949356771
105.8628572017562
105.86285902574433
105.86285902438452
105.86286048268025
105.86285910590468
105.8628590462596
105.8628594762607
105.86285756543334
105.86286177046428
105.86287922000906
105.86300811258702
105.86394264098583
105.87087440022063
105.92309984438296
106.31605022659991
109.58235465725029
127.0265296652522
128.30798756020317
107.41892588672513
102.7155366614788
101.65071206622507
101.40860288885388
101.35348572264164
101.34092895873931
101.3380675006433
101.33741468058753
101.33726568726537
101.33723206212385
101.33722425267447
101.33722251737993
101.33722193469245
101.33722225142337
101.33722190155262
101.33722175463416
101.33722202530207
101.33722198621669
101.33722203800775
101.33722191524767
101.3372232537715
101.33722932414689
101.33727430926851
101.33759606703603
101.3398811317064
101.3560813183261
101.46884907933142
102.24853688380882
106.31604435920889
125.87164508672151
126.29637177335734
106.21581533967843
101.65071423413393
100.61160775540574
100.37488855124778
100.32093337951106
100.30863230853286
100.30582726406058
100.30518755229679
100.3050417601679
100.30500840489302
100.30500080538846
100.30499905323025
100.30499862135136
100.30499859627507
100.30499856733836
100.30499865089868
100.30499857888438
100.30499858408106
100.30499859021
100.3049988604929
100.30500106522382
100.30501580997138
100.3051173053838
100.30580715407838
100.31042662028885
100.34037786007025
100.52552578017595
101.46884973739758
105.92310459728796
125.72595683250077
125.839077421314
105.94308715618017
101.40860487074693
100.37488984093986
100.13919158450584
100.0854441003608
100.07318667632664
100.07039113485594
100.06975354257588
100.06960813958237
100.06957496890439
100.06956739877972
100.06956567388666
100.06956529958565
100.0695651908826
100.06956516427226
100.06956517443648
100.06956517351763
100.06956518115759
100.06956527790747
100.06956597599063
100.06957049372846
100.06960055998525
100.06979673169198
100.07104449555955
100.07866360277737
100.12238567262254
100.3403775524526
101.35608140470015
105.8708738960145
125.70763520901009
125.73535770040878
105.8811189971892
101.35348804325588
100.32093242425289
100.08544381695928
100.0317356380983
100.01948606799637
100.01669218573242
100.01605496301931
100.01590961812441
100.0158764669443
100.01586890621213
100.0158671798193
100.01586678960649
100.01586669956353
100.01586668388242
100.01586667616927
100.01586667842338
100.01586670830643
100.01586691044908
100.01586824224394
100.01587675758901
100.01593016709106
100.01625487601949
100.01814146369303
100.02841309615518
100.0786635838227
100.31042675008274
101.33988238033645
105.86393589003475
125.70521896679422
125.7117945353556
105.86701876359201
101.34093305138691
100.3086303657631
100.07318637964536
100.01948605017942
100.00723793979975
100.00444436356929
100.00380719690665
100.00366186870674
100.0036287218849
100.00362116171912
100.0036194383361
100.00361904406064
100.0036189540821
100.00361893458934
100.00361893104002
100.0036189389639
100.00361899783617
100.00361937369748
100.00362169934378
100.00363577446285
100.00371804555151
100.00417676977163
100.00657897865615
100.01814145409806
100.07104444685791
100.30580699964416
101.33759509180986
105.86300571133248
125.70490889736888
125.70643907754625
105.86380873412685
101.33806092983576
100.30582554779625
100.0703910109117
100.01669222379168
100.00444436333228
100.00165084183362
100.00101368332794
100.00086835826379
100.00083521201465
100.00082765181128
100.00082592763857
100.00082553433866
100.0008254449421
100.00082542467511
100.000825422607
100.00082543816464
100.00082554038626
100.00082615834073
100.00082977666715
100.00085021053967
100.0009603143258
100.00151994790883
100.00417676778407
100.0162548762355
100.0697967390976
100.305117265267
101.33727307137727
105.86287194695488
125.70485410631612
125.70520734140342
105.86308138316818
101.33740534840544
100.30518663784939
100.06975359443516
100.01605496090014
100.0038072006342
100.00101368647157
100.00037652902152
100.00023120466359
100.00019805844259
100.00019049841548
100.00018877403393
100.00018838074509
100.00018829119574
100.00018827146565
100.00018827134912
100.00018829764937
100.0001884578394
100.0001893698385
100.00019436837395
100.00022054345416
100.00035049699027
100.00096031529766
100.00371804440606
100.01593015901436
100.06960055460709
100.30501556619198
101.33722935781019
105.86286290221193
125.7048634088557
125.70492350961813
105.86287621524231
101.33726232460228
100.30504186868119
100.06960841231458
100.01590963021088
100.00366187815415
100.00086835892344
100.00023120456795
100.00008588001674
100.00005273392179
100.00004517384657
100.00004344951351
100.00004305626742
100.00004296675611
100.00004294751466
100.0000429500002
100.0000429897916
100.00004321589549
100.00004442418995
100.00005060141648
100.00008069629787
100.00022054326013
100.00085021001613
100.00363577487026
100.01587675844839
100.06957050311946
100.30500050534006
101.33722145069031
105.86285221035882
125.70484806868865
125.70489360986028
105.86284966083555
101.3372325052088
100.30500905210708
100.06957501107688
100.0158764849296
100.00362873349401
100.00083521155545
100.0001980586168
100.00005273389982
100.0000195878468
100.00001202775508
100.0000103034334
100.00000991019878
100.00000982081546
100.00000980219282
100.00000980777794
100.00000986217316
100.00001015129496
100.00001160072812
100.00001855432303
100.00005060145885
100.00019436845699
100.00082977630285
100.00362169773382
100.01586823727979
100.06956589525834
100.30499876667953
101.33722227792826
105.86286444514174
125.70485196004337
125.7048443499417
105.86285869357765
101.33722640393181
100.30500177124782
100.06956735674143
100.01586892029516
100.00362115819696
100.00082765163924
100.00019049796101
100.00004517384757
100.0000120277715
100.00000446767041
100.0000027433587
100.00000235015082
100.00000226091446
100.00000224299575
100.00000225177735
100.00000231948559
100.00000265782074
100.00000426139967
100.00001160075031
100.00004442423344
100.00018936971178
100.00082615894966
100.00361937594788
100.01586692939142
100.06956522970252
100.30499840454046
101.33722256990706
105.86285867447295
125.70486238986558
125.70485793701891
105.86286648974114
101.33722563602886
100.30499901878973
100.06956567528631
100.01586721782864
100.00361943358664
100.00082592912425
100.00018877372179
100.0000434495596
100.00001030342342
100.00000274335459
100.00000101905367
100.00000062588634
100.00000053681488
100.00000051959621
100.00000053118006
100.00000060891547
100.00000097791647
100.000002657815
100.00001015129108
100.00004321594976
100.0001884574902
100.00082554013078
100.00361899696519
100.01586669697706
100.06956516268568
100.30499857913188
101.33722288598548
105.8628489844435
125.70485083361582
125.7048533997741
105.86286283945458
101.33722556582075
100.30499807135756
100.06956526334949
100.01586676769264
100.0036190429512
100.00082553352173
100.0001883805837
100.00004305634567
100.00000991017812
100.00000235014865
100.00000062588592
100.00000023279
100.00000014389977
100.00000012729106
100.00000014093092
100.00000022478646
100.00000060891497
100.00000231948735
100.00000986216853
100.00004298981395
100.00018829760133
100.00082543894814
100.00361894311835
100.01586666943894
100.069565142154
100.30499845880155
101.33722111178682
105.8628608708069
125.70485364671511
125.70485923488178
105.86286506092472
101.33722047949115
100.30499822221994
100.06956533236605
100.0158666861563
100.00361896179352
100.00082544414694
100.00018829112643
100.00004296674139
100.00000982080935
100.00000226091674
100.00000053681448
100.00000014389991
100.00000005525287
100.00000003914275
100.00000005405064
100.00000014093078
100.00000053117935
100.00000225177455
100.00000980777982
100.00004294998104
100.00018827107728
100.00082542248333
100.00361892863712
100.01586667342593
100.06956516164391
100.30499852385529
101.33722036837597
105.86285814923659
125.70485303727689
125.70485079012376
105.8628647127644
101.3372185081916
100.30499851194111
100.06956510581148
100.01586667819464
100.00361893036546
100.00082542441712
100.00018827159172
100.00004294746998
100.00000980219278
100.00000224299094
100.00000051959621
100.00000012729085
100.00000003914276
100.00000002351972
100.00000003914278
100.00000012729089
100.00000051959718
100.00000224299295
100.00000980218587
100.00004294755196
100.0001882714531
100.00082542566157
100.00361893238903
100.01586667169222
100.06956514485567
100.30499833687925
101.33722296383333
105.86285615396419
125.70485711248426
125.70485010273923
105.8628458219794
101.33722189501414
100.30499936099136
100.06956512657248
100.01586670456365
100.00361892674248
100.00082542294705
100.00018827106341
100.00004295002518
100.00000980779946
100.00000225177365
100.00000053118114
100.00000014093081
100.00000005405067
100.00000003914282
100.00000005525294
100.00000014389956
100.00000053681478
100.00000226091262
100.00000982080013
100.00004296674211
100.00018829096373
100.0008254442
100.00361895378244
100.01586669850754
100.06956521045221
100.3049981490105
101.33722184708405
105.86285363872112
125.70485065915848
125.70486658601084
105.86285125548272
101.33722357652647
100.3049983260764
100.06956513951977
100.01586665123234
100.00361893661378
100.0008254395805
100.00018829727034
100.00004298985006
100.00000986216077
100.0000023194829
100.00000060891497
100.00000022478639
100.000000140931
100.00000012729119
100.00000014389965
100.00000023279019
100.00000062588643
100.00000235014701
100.00000991019533
100.00004305629982
100.00018838079433
100.00082553384993
100.00361904241531
100.01586678690188
100.06956524377668
100.30499872003062
101.33722107863068
105.86285625296429
125.70485440328405
125.70484614094215
105.86285903001823
101.337225113869
100.3049979410629
100.06956518762868
100.01586667097472
100.00361899636565
100.00082553953033
100.0001884575465
100.0000432160014
100.00001015127891
100.00000265782056
100.00000097791613
100.00000060891543
100.00000053118002
100.0000005195962
100.00000053681481
100.00000062588659
100.00000101905309
100.00000274335422
100.0000103034298
100.00004344954996
100.00018877389493
100.00082592825419
100.0036194411298
100.01586720321983
100.06956563736898
100.30499908831266
101.33722233364277
105.86285826544315
125.70485813927432
125.70485809962061
105.86286531301116
101.33722071278214
100.3049981517756
100.0695651456065
100.01586690676483
100.00361937999446
100.00082615766644
100.00018936989106
100.00004442420465
100.00001160073289
100.00000426139958
100.00000265782006
100.00000231948586
100.00000225177837
100.00000224299588
100.00000226091439
100.0000023501511
100.000002743358
100.00000446767392
100.00001202775944
100.00004517389638
100.00019049807398
100.00082765166916
100.00362116143087
100.01586889722965
100.06956740075715
100.30500036282601
101.33722317232355
105.86285655693122
125.70485623427166
125.70485387929486
105.86286667194618
101.33721824812564
100.30499890701682
100.06956581813526
100.01586824028155
100.00362169553503
100.0008297765701
100.00019436869295
100.0000506014108
100.00001855434792
100.00001160073026
100.00001015129452
100.00000986217134
100.00000980777705
100.00000980219322
100.00000982081818
100.00000991019786
100.0000103034338
100.00001202775658
100.00001958784391
100.0000527339456
100.00019805841664
100.00083521287671
100.00362872614508
100.01587645602503
100.0695749585492
100.30500811008582
101.3372315140746
105.8628702716388
125.70487037613444
125.70483994837836
105.86283853198184
101.33722092136784
100.30500037203412
100.06957042886023
100.01587677680426
100.00363576913145
100.00085021083152
100.00022054316682
100.000080696232
100.00005060141126
100.0000444241844
100.00004321589527
100.00004298981007
100.00004295000195
100.00004294751292
100.00004296676062
100.00004305626085
100.00004344951368
100.00004517384443
100.00005273393944
100.00008588003651
100.00023120447909
100.00086835887821
100.00366186933549
100.01590963084901
100.06960809287253
100.3050415539706
101.33726658725955
105.86291111641289
125.70494564738475
125.70487285446833
105.86285584079333
101.33723254185482
100.30501558498705
100.0696006230153
100.01593016198468
100.00371804916736
100.00096031749284
100.00035049735843
100.00022054400198
100.00019436887438
100.00018937025847
100.00018845822225
100.00018829805559
100.00018827177792
100.00018827193867
100.00018829159917
100.00018838117388
100.00018877446114
100.00019049881774
100.00019805889245
100.00023120498338
100.00037652943134
100.00101368386662
100.00380719036988
100.01605494308208
100.06975343946749
100.305187127418
101.33741384037354
105.86306470676901
125.70520506088405
125.70485725980184
105.86288209181556
101.33727372286377
100.30511711079448
100.06979686679294
100.01625486656282
100.00417677634688
100.00151995018611
100.00096031610197
100.00085021232736
100.00082977848349
100.0008261602168
100.00082554265232
100.0008254401172
100.00082542448807
100.00082542665439
100.00082544671137
100.00082553623594
100.00082592956251
100.00082765383868
100.00083521388538
100.00086836013547
100.00101368507735
100.00165084080527
100.00444436485323
100.01669216715632
100.07039106754841
100.30582700031741
101.33806664167108
105.86380541756476
125.70643490101563
125.70490334607284
105.86301508233005
101.33759384634378
100.30580708896618
100.07104443562
100.01814147245167
100.00657898892416
100.00417677341754
100.00371805017758
100.00363578022225
100.0036217035143
100.00361937719892
100.00361900184562
100.00361894341374
100.00361893621219
100.00361893840348
100.00361895847618
100.00361904845687
100.00361944230902
100.00362116651516
100.00362872620003
100.00366187311917
100.00380720023136
100.0044443672131
100.00723794803488
100.01948606002837
100.07318663883977
100.30863223445286
101.34092881083525
105.86701369391356
125.71179455180979
125.7052183596647
105.8639295914001
101.33988036492393
100.31042712318096
100.0786635051456
100.0284131144193
100.01814146715058
100.01625487664268
100.0159301649075
100.0158767561984
100.01586824221123
100.0158669182901
100.01586671038734
100.01586667835969
100.01586667771986
100.01586668191663
100.01586670023343
100.01586679096519
100.01586718279064
100.0158689063035
100.01587646856642
100.01590962106486
100.0160549603624
100.01669218825248
100.0194860645213
100.03173568057967
100.08544417648388
100.32093371959415
101.35348667616206
105.88111281895773
125.73535519357496
125.70763276049298
105.87086355970476
101.35608123860067
100.3403773308411
100.12238562002226
100.07866353911726
100.07104441357123
100.06979665310577
100.06960050813744
100.06957041250553
100.06956588319191
100.06956519798611
100.06956510522102
100.06956510898604
100.06956508688293
100.06956508853581
100.06956511678271
100.06956521511077
100.06956560508281
100.06956732099235
100.06957489165207
100.0696080547171
100.06975347692125
100.0703910630463
100.0731865812673
100.08544409386336
100.1391919532373
100.3748886664448
101.40860264056168
105.94308315125447
125.83908178748388
125.72596006960018
105.92310523698542
101.4688536423004
100.5255263601519
100.34037857862982
100.31042737201491
100.30580783705348
100.30511790768242
100.30501643501556
100.30500171808373
100.30499969286569
100.30499928693993
100.30499921945325
100.30499926447006
100.3049992692507
100.30499925053485
100.30499927789992
100.30499933432634
100.30499971100788
100.30500148264737
100.30500912654868
100.30504236837513
100.30518822141444
100.30582792592757
100.30863297556255
100.32093433820508
100.37488941085732
100.61160714263707
101.6507102415228
106.21580111228297
126.29636480872324
125.87165037826169
106.31605428213184
102.24853941013193
101.46885147121075
101.35608375161797
101.33988350710077
101.3375983615426
101.33727718020856
101.33723158532753
101.33722551886385
101.33722429761383
101.33722434080914
101.33722463615561
101.33722420261974
101.33722427774025
101.33722435453048
101.33722451291482
101.3372245170225
101.33722482603879
101.33722671701761
101.33723430003928
101.33726832148493
101.3374171231567
101.33806950135953
101.34093160797491
101.35348842446464
101.4086045863923
101.65071286901792
102.71553478935532
107.41891894077382
128.30799170483377
127.02652817910123
109.58236605871652
106.31605321971344
105.92310298012022
105.8708797770933
105.86394608967143
105.86301038470437
105.86288118786182
105.86286598875503
105.86286462218976
105.86286273357479
105.86286204405516
105.86286261507757
105.862863662921
105.86286273592488
105.86286276197093
105.86286185153477
105.8628621563472
105.86286359446596
105.86286608968695
105.86287429510908
105.86291147547271
105.86307866399662
105.8638100830404
105.86702012351309
105.88111678130527
105.94308481725177
106.21581310372977
107.41892267001657
112.70348728622221
137.2184315208053
140.6676700922484
127.02652143530396
125.87164708924807
125.72595974873018
125.7076310193704
125.70522641935965
125.70490552099206
125.704865763377
125.70485734311393
125.70485312907532
125.7048556851513
125.70485732771988
125.70485616370652
125.70485447093195
125.70485587304272
125.7048556428681
125.7048572272673
125.70485774203408
125.70485713287103
125.7048587663206
125.70487375033905
125.70493872833742
125.70521598391143
125.70643609319104
125.7117945131242
125.7353568806735
125.83907762249984
126.2963727343649
128.3079900952669
137.2184251296436
166.9355934523904
