# vtk DataFile Version 2.0
Unstructured Grid Example
ASCII
DATASET UNSTRUCTURED_GRID

POINTS 961 float
0.150000006 -0.00839745998 0
0.146666661 -0.00839745998 0
0.143333331 -0.00839745998 0
0.140000001 -0.00839745998 0
0.13666667 -0.00839745998 0
0.13333334 -0.00839745998 0
0.129999995 -0.00839745998 0
0.126666665 -0.00839745998 0
0.123333335 -0.00839745998 0
0.119999997 -0.00839745998 0
0.116666667 -0.00839745998 0
0.113333337 -0.00839745998 0
0.109999999 -0.00839745998 0
0.106666669 -0.00839745998 0
0.103333332 -0.00839745998 0
0.100000001 -0.00839745998 0
0.0966666639 -0.00839745998 0
0.0933333337 -0.00839745998 0
0.0900000036 -0.00839745998 0
0.086666666 -0.00839745998 0
0.0833333358 -0.00839745998 0
0.0799999982 -0.00839745998 0
0.0766666681 -0.00839745998 0
0.0733333305 -0.00839745998 0
0.0700000003 -0.00839745998 0
0.0666666701 -0.00839745998 0
0.0633333325 -0.00839745998 0
0.0599999987 -0.00839745998 0
0.0566666685 -0.00839745998 0
0.0533333346 -0.00839745998 0
0.0500000007 -0.00839745998 0
0.148333326 -0.0112842107 0
0.144999996 -0.0112842107 0
0.141666666 -0.0112842107 0
0.138333336 -0.0112842107 0
0.135000005 -0.0112842107 0
0.13166666 -0.0112842107 0
0.12833333 -0.0112842107 0
0.125 -0.0112842107 0
0.12166667 -0.0112842107 0
0.118333332 -0.0112842107 0
0.115000002 -0.0112842107 0
0.111666664 -0.0112842107 0
0.108333334 -0.0112842107 0
0.104999997 -0.0112842107 0
0.101666667 -0.0112842107 0
0.0983333364 -0.0112842107 0
0.0949999988 -0.0112842107 0
0.0916666687 -0.0112842107 0
0.088333331 -0.0112842107 0
0.0850000009 -0.0112842107 0
0.0816666633 -0.0112842107 0
0.0783333331 -0.0112842107 0
0.075000003 -0.0112842107 0
0.0716666654 -0.0112842107 0
0.0683333352 -0.0112842107 0
0.0649999976 -0.0112842107 0
0.0616666675 -0.0112842107 0
0.0583333336 -0.0112842107 0
0.0549999997 -0.0112842107 0
0.0516666658 -0.0112842107 0
0.0483333319 -0.0112842107 0
0.146666661 -0.0141709624 0
0.143333331 -0.0141709624 0
0.140000001 -0.0141709624 0
0.13666667 -0.0141709624 0
0.13333334 -0.0141709624 0
0.129999995 -0.0141709624 0
0.126666665 -0.0141709624 0
0.123333335 -0.0141709624 0
0.119999997 -0.0141709624 0
0.116666667 -0.0141709624 0
0.113333337 -0.0141709624 0
0.109999999 -0.0141709624 0
0.106666669 -0.0141709624 0
0.103333332 -0.0141709624 0
0.100000001 -0.0141709624 0
0.0966666639 -0.0141709624 0
0.0933333337 -0.0141709624 0
0.0900000036 -0.0141709624 0
0.086666666 -0.0141709624 0
0.0833333358 -0.0141709624 0
0.0799999982 -0.0141709624 0
0.0766666681 -0.0141709624 0
0.0733333305 -0.0141709624 0
0.0700000003 -0.0141709624 0
0.0666666701 -0.0141709624 0
0.0633333325 -0.0141709624 0
0.0599999987 -0.0141709624 0
0.0566666685 -0.0141709624 0
0.0533333346 -0.0141709624 0
0.0500000007 -0.0141709624 0
0.0466666669 -0.0141709624 0
0.144999996 -0.0170577131 0
0.141666666 -0.0170577131 0
0.138333336 -0.0170577131 0
0.135000005 -0.0170577131 0
0.13166666 -0.0170577131 0
0.12833333 -0.0170577131 0
0.125 -0.0170577131 0
0.12166667 -0.0170577131 0
0.118333332 -0.0170577131 0
0.115000002 -0.0170577131 0
0.111666664 -0.0170577131 0
0.108333334 -0.0170577131 0
0.104999997 -0.0170577131 0
0.101666667 -0.0170577131 0
0.0983333364 -0.0170577131 0
0.0949999988 -0.0170577131 0
0.0916666687 -0.0170577131 0
0.088333331 -0.0170577131 0
0.0850000009 -0.0170577131 0
0.0816666633 -0.0170577131 0
0.0783333331 -0.0170577131 0
0.075000003 -0.0170577131 0
0.0716666654 -0.0170577131 0
0.0683333352 -0.0170577131 0
0.0649999976 -0.0170577131 0
0.0616666675 -0.0170577131 0
0.0583333336 -0.0170577131 0
0.0549999997 -0.0170577131 0
0.0516666658 -0.0170577131 0
0.0483333319 -0.0170577131 0
0.0450000018 -0.0170577131 0
0.143333331 -0.0199444648 0
0.140000001 -0.0199444648 0
0.13666667 -0.0199444648 0
0.13333334 -0.0199444648 0
0.129999995 -0.0199444648 0
0.126666665 -0.0199444648 0
0.123333335 -0.0199444648 0
0.119999997 -0.0199444648 0
0.116666667 -0.0199444648 0
0.113333337 -0.0199444648 0
0.109999999 -0.0199444648 0
0.106666669 -0.0199444648 0
0.103333332 -0.0199444648 0
0.100000001 -0.0199444648 0
0.0966666639 -0.0199444648 0
0.0933333337 -0.0199444648 0
0.0900000036 -0.0199444648 0
0.086666666 -0.0199444648 0
0.0833333358 -0.0199444648 0
0.0799999982 -0.0199444648 0
0.0766666681 -0.0199444648 0
0.0733333305 -0.0199444648 0
0.0700000003 -0.0199444648 0
0.0666666701 -0.0199444648 0
0.0633333325 -0.0199444648 0
0.0599999987 -0.0199444648 0
0.0566666685 -0.0199444648 0
0.0533333346 -0.0199444648 0
0.0500000007 -0.0199444648 0
0.0466666669 -0.0199444648 0
0.043333333 -0.0199444648 0
0.141666666 -0.0228312165 0
0.138333336 -0.0228312165 0
0.135000005 -0.0228312165 0
0.13166666 -0.0228312165 0
0.12833333 -0.0228312165 0
0.125 -0.0228312165 0
0.12166667 -0.0228312165 0
0.118333332 -0.0228312165 0
0.115000002 -0.0228312165 0
0.111666664 -0.0228312165 0
0.108333334 -0.0228312165 0
0.104999997 -0.0228312165 0
0.101666667 -0.0228312165 0
0.0983333364 -0.0228312165 0
0.0949999988 -0.0228312165 0
0.0916666687 -0.0228312165 0
0.088333331 -0.0228312165 0
0.0850000009 -0.0228312165 0
0.0816666633 -0.0228312165 0
0.0783333331 -0.0228312165 0
0.075000003 -0.0228312165 0
0.0716666654 -0.0228312165 0
0.0683333352 -0.0228312165 0
0.0649999976 -0.0228312165 0
0.0616666675 -0.0228312165 0
0.0583333336 -0.0228312165 0
0.0549999997 -0.0228312165 0
0.0516666658 -0.0228312165 0
0.0483333319 -0.0228312165 0
0.0450000018 -0.0228312165 0
0.0416666679 -0.0228312165 0
0.140000001 -0.0257179681 0
0.13666667 -0.0257179681 0
0.13333334 -0.0257179681 0
0.129999995 -0.0257179681 0
0.126666665 -0.0257179681 0
0.123333335 -0.0257179681 0
0.119999997 -0.0257179681 0
0.116666667 -0.0257179681 0
0.113333337 -0.0257179681 0
0.109999999 -0.0257179681 0
0.106666669 -0.0257179681 0
0.103333332 -0.0257179681 0
0.100000001 -0.0257179681 0
0.0966666639 -0.0257179681 0
0.0933333337 -0.0257179681 0
0.0900000036 -0.0257179681 0
0.086666666 -0.0257179681 0
0.0833333358 -0.0257179681 0
0.0799999982 -0.0257179681 0
0.0766666681 -0.0257179681 0
0.0733333305 -0.0257179681 0
0.0700000003 -0.0257179681 0
0.0666666701 -0.0257179681 0
0.0633333325 -0.0257179681 0
0.0599999987 -0.0257179681 0
0.0566666685 -0.0257179681 0
0.0533333346 -0.0257179681 0
0.0500000007 -0.0257179681 0
0.0466666669 -0.0257179681 0
0.043333333 -0.0257179681 0
0.0399999991 -0.0257179681 0
0.138333336 -0.0286047198 0
0.135000005 -0.0286047198 0
0.13166666 -0.0286047198 0
0.12833333 -0.0286047198 0
0.125 -0.0286047198 0
0.12166667 -0.0286047198 0
0.118333332 -0.0286047198 0
0.115000002 -0.0286047198 0
0.111666664 -0.0286047198 0
0.108333334 -0.0286047198 0
0.104999997 -0.0286047198 0
0.101666667 -0.0286047198 0
0.0983333364 -0.0286047198 0
0.0949999988 -0.0286047198 0
0.0916666687 -0.0286047198 0
0.088333331 -0.0286047198 0
0.0850000009 -0.0286047198 0
0.0816666633 -0.0286047198 0
0.0783333331 -0.0286047198 0
0.075000003 -0.0286047198 0
0.0716666654 -0.0286047198 0
0.0683333352 -0.0286047198 0
0.0649999976 -0.0286047198 0
0.0616666675 -0.0286047198 0
0.0583333336 -0.0286047198 0
0.0549999997 -0.0286047198 0
0.0516666658 -0.0286047198 0
0.0483333319 -0.0286047198 0
0.0450000018 -0.0286047198 0
0.0416666679 -0.0286047198 0
0.038333334 -0.0286047198 0
0.13666667 -0.0314914696 0
0.13333334 -0.0314914696 0
0.129999995 -0.0314914696 0
0.126666665 -0.0314914696 0
0.123333335 -0.0314914696 0
0.119999997 -0.0314914696 0
0.116666667 -0.0314914696 0
0.113333337 -0.0314914696 0
0.109999999 -0.0314914696 0
0.106666669 -0.0314914696 0
0.103333332 -0.0314914696 0
0.100000001 -0.0314914696 0
0.0966666639 -0.0314914696 0
0.0933333337 -0.0314914696 0
0.0900000036 -0.0314914696 0
0.086666666 -0.0314914696 0
0.0833333358 -0.0314914696 0
0.0799999982 -0.0314914696 0
0.0766666681 -0.0314914696 0
0.0733333305 -0.0314914696 0
0.0700000003 -0.0314914696 0
0.0666666701 -0.0314914696 0
0.0633333325 -0.0314914696 0
0.0599999987 -0.0314914696 0
0.0566666685 -0.0314914696 0
0.0533333346 -0.0314914696 0
0.0500000007 -0.0314914696 0
0.0466666669 -0.0314914696 0
0.043333333 -0.0314914696 0
0.0399999991 -0.0314914696 0
0.0366666652 -0.0314914696 0
0.135000005 -0.0343782231 0
0.13166666 -0.0343782231 0
0.12833333 -0.0343782231 0
0.125 -0.0343782231 0
0.12166667 -0.0343782231 0
0.118333332 -0.0343782231 0
0.115000002 -0.0343782231 0
0.111666664 -0.0343782231 0
0.108333334 -0.0343782231 0
0.104999997 -0.0343782231 0
0.101666667 -0.0343782231 0
0.0983333364 -0.0343782231 0
0.0949999988 -0.0343782231 0
0.0916666687 -0.0343782231 0
0.088333331 -0.0343782231 0
0.0850000009 -0.0343782231 0
0.0816666633 -0.0343782231 0
0.0783333331 -0.0343782231 0
0.075000003 -0.0343782231 0
0.0716666654 -0.0343782231 0
0.0683333352 -0.0343782231 0
0.0649999976 -0.0343782231 0
0.0616666675 -0.0343782231 0
0.0583333336 -0.0343782231 0
0.0549999997 -0.0343782231 0
0.0516666658 -0.0343782231 0
0.0483333319 -0.0343782231 0
0.0450000018 -0.0343782231 0
0.0416666679 -0.0343782231 0
0.038333334 -0.0343782231 0
0.0350000001 -0.0343782231 0
0.13333334 -0.0372649729 0
0.129999995 -0.0372649729 0
0.126666665 -0.0372649729 0
0.123333335 -0.0372649729 0
0.119999997 -0.0372649729 0
0.116666667 -0.0372649729 0
0.113333337 -0.0372649729 0
0.109999999 -0.0372649729 0
0.106666669 -0.0372649729 0
0.103333332 -0.0372649729 0
0.100000001 -0.0372649729 0
0.0966666639 -0.0372649729 0
0.0933333337 -0.0372649729 0
0.0900000036 -0.0372649729 0
0.086666666 -0.0372649729 0
0.0833333358 -0.0372649729 0
0.0799999982 -0.0372649729 0
0.0766666681 -0.0372649729 0
0.0733333305 -0.0372649729 0
0.0700000003 -0.0372649729 0
0.0666666701 -0.0372649729 0
0.0633333325 -0.0372649729 0
0.0599999987 -0.0372649729 0
0.0566666685 -0.0372649729 0
0.0533333346 -0.0372649729 0
0.0500000007 -0.0372649729 0
0.0466666669 -0.0372649729 0
0.043333333 -0.0372649729 0
0.0399999991 -0.0372649729 0
0.0366666652 -0.0372649729 0
0.0333333351 -0.0372649729 0
0.13166666 -0.0401517227 0
0.12833333 -0.0401517227 0
0.125 -0.0401517227 0
0.12166667 -0.0401517227 0
0.118333332 -0.0401517227 0
0.115000002 -0.0401517227 0
0.111666664 -0.0401517227 0
[...]
POINT_DATA 961
SCALARS Temp float 1
LOOKUP_TABLE default
296.1205955859392
246.71286551529408
212.5248865274502
192.1056544841949
181.17698681820664
175.86580163600038
173.48996076873033
172.49902185186303
172.1092512085358
171.9633013078764
171.91087459730383
171.8927009813237
171.88658969890918
171.88458841583292
171.8839493294368
171.88374706873762
171.8836858946622
171.8836678124547
171.8836719114569
171.88370946196892
171.88388955712287
171.88469398419198
171.8881176214744
171.901986157777
171.95474310595623
172.140855346986
172.7400278783131
174.46917808780137
178.8631417798426
188.55632264157757
207.40711412415044
246.7128829853151
201.7792157221651
173.30801784167608
157.05788213133337
148.68639175356785
144.74535477740878
143.02775306330682
142.32630051392164
142.05506424886383
141.95490737352102
141.91934542229075
141.90713589585707
141.90306457257824
141.90174115941366
141.9013190681549
141.9011893332263
141.90115036773756
141.90114251276898
141.901157691641
141.90124577686726
141.9016468242568
141.90338012253437
141.91053044984494
141.93834550441974
142.0393299308917
142.37669141691785
143.39713796725968
146.1446899011958
152.62619781757277
165.87434209096438
188.5563398117277
212.52485456789165
173.3080082828823
148.85307889378902
135.09129302991883
128.0555296209164
124.75366988212899
123.31473984091267
122.72602914207188
122.49774818554675
122.41318333313208
122.38306167771916
122.37268810047571
122.36921896695507
122.36808851696634
122.36772843680043
122.36761578291755
122.36758229817482
122.36758162717027
122.36761944966015
122.36780384626572
122.3686122313776
122.37198439758211
122.3853136498965
122.43474978268425
122.60470013172994
123.13874445984526
124.64997249759165
128.4445607411154
136.78757153007174
152.62618813599943
178.86314685862567
192.10562432313677
157.05787376069185
135.09129964048367
122.64500697081166
116.23298250399428
113.20036496065077
111.8690243458899
111.32073150658846
111.10690368897859
111.02730669818823
110.99883572213363
110.98899687231162
110.98569697920328
110.98461823800697
110.98427474439104
110.98416787324638
110.98413876922677
110.98414612611867
110.98422326074267
110.98457388342779
110.98605042688087
110.99195545769693
111.01419716253852
111.09234867523172
111.3455145075429
112.09222908762142
114.07291410593467
118.7442402176088
128.44457024753433
146.14470094186208
174.4691705590109
181.17697016996726
148.68638949131702
128.05553205653644
116.23300695219109
110.08615982822114
107.15786636824791
105.86506619045228
105.33031577073179
105.1210625524453
105.04296218286349
105.01496847019735
105.00527845540056
105.00202420211018
105.00095991910719
105.00061980515437
105.00051453474948
105.00048935580367
105.00051221389326
105.0006533447085
105.00126088300381
105.00371009281898
105.01304042393122
105.0463785985224
105.15702564889814
105.49470352387921
106.4330930227947
108.78658220915821
114.07291034228396
124.64997005901532
143.3971350603886
172.74003455194
175.8657875943182
144.745370590779
124.75368906991366
113.20034815950979
107.15786076531475
104.26739419662502
102.98761553757156
102.45717043685151
102.24929743934536
102.17162776715155
102.14376632219
102.13411618499873
102.13087358664494
102.12981288932822
102.12947428992015
102.12937096159979
102.12935097196845
102.12939725285528
102.12963198347958
102.13059230143426
102.13428413183443
102.14764644016893
102.19286494814578
102.33479501122301
102.74491308595262
103.82873700086505
106.43309236569932
112.09222987184864
123.1387501558325
142.37667471895176
172.14084667966526
173.48995960615508
143.02776348131786
123.31476520839483
111.8690035014371
105.86506026205828
102.98761464329255
101.71204211042297
101.1829146142975
100.97544294626324
100.89789347296822
100.87006754120524
100.86042776058211
100.85718836898012
100.8561283843814
100.85579041758004
100.85568911031366
100.85567742467566
100.85575630166439
100.8561133242633
100.85750289518266
100.86258555136213
100.88005943176451
100.93619822249994
101.10381681971958
101.56678949204509
102.74491226247466
105.49470105982697
111.3455100649568
122.60469688078743
142.0393271541878
171.9547525020377
172.49902950882037
142.32631501344565
122.72599035189224
111.32071451235456
105.33031319556721
102.45717240873405
101.18291428156445
100.65417771184617
100.44681933316072
100.36930282069558
100.34148615458913
100.33184900231299
100.32861037291126
100.32755080519068
100.32721364857144
100.3271150148392
100.32711424456086
100.32723380860848
100.32773284694981
100.32958176428234
100.33602347802922
100.3571273257909
100.42190633434197
100.60764445472789
101.1038165486145
102.33479473224236
105.15702580273924
111.09234895991635
122.43474024298233
141.93832843972413
171.90197645222386
172.10924914869426
142.0550868637451
122.49770956399774
111.1068915025873
105.12106250440148
102.24929563397
100.97544291145633
100.44681995826838
100.23949310403603
100.16198539735937
100.13417111205237
100.1245346683713
100.12129622088318
100.12023691796017
100.11990066744984
100.11980558607378
100.11981788503095
100.11998280526912
100.12062799668017
100.12290882837313
100.1305082291033
100.15439204264995
100.2250893308989
100.42190653298141
100.93619809479567
102.19286447466868
105.04637811276625
111.0141944785081
122.38531618739724
141.91053540545366
171.88813505506403
171.96332213264577
141.95484624174483
122.41316635368611
111.02730521353382
105.04296799917638
102.17162778721787
100.89789444587204
100.36930285155292
100.16198536482732
100.08447981841427
100.05666622561202
100.04702995149916
100.04379162411394
100.04273263401737
100.04239747787832
100.04230646965995
100.04233280365014
100.0425427153056
100.04332065700859
100.04595793844491
100.05441883427646
100.08015873119759
100.1543919558371
100.35712724020111
100.88005944766027
102.14764640576176
105.01304061650374
110.99194668859464
122.37197371706873
141.90336550842736
171.88468432364655
171.91092753675514
141.91930158696542
122.3830559923664
110.99883987004475
105.01496651585944
102.1437671672291
100.87006895018027
100.34148616380247
100.13417121016529
100.05666622166511
100.02885281005912
100.01921658959881
100.01597837947939
100.01491973672749
100.01458582575039
100.01449904861559
100.01453885832613
100.01478840985493
100.01567281366309
100.01856861817161
100.02759183854198
100.05441887087377
100.13050825882281
100.3360233719522
100.8625853056485
102.13428372572123
105.00370855837741
110.98604969647154
122.36861557242719
141.90165475531523
171.88387714423038
171.89265143731103
141.9071139376656
122.37269105182811
110.98900631874848
105.00527655764792
102.1341173094183
100.86042729415362
100.33184907705682
100.12453449697374
100.04702995405846
100.0192166076243
100.00958044117183
100.00634236757939
100.00528411627909
100.00495147493693
100.00486865463463
100.00492001485861
100.00520054814795
100.00616041974419
100.00922163159167
100.01856864066956
100.04595796318789
100.12290878917574
100.32958194555285
100.85750333703011
102.13059381861468
105.00125923839768
110.9845709441893
122.36780454108738
141.90124643717533
171.88372279892974
171.88657344129308
141.9030682191989
122.36923505856
110.98569301579255
105.00202538929506
102.13087669329049
100.85718814987611
100.3286107478011
100.12129611593892
100.0437916542728
100.01597836821698
100.00634236244426
100.00310449767115
100.00204670196105
100.0017152709793
100.00163580006515
100.00169601219555
100.0019980759039
100.00300538446614
100.006160409834
100.01567280889951
100.04332069189707
100.12062786509242
100.32773278195543
100.85611313993242
102.1296313733742
105.00065272389254
110.98422235981248
122.36762379944747
141.9011369406925
171.8836740832346
171.88457489760998
141.90174482021416
122.36810712626941
110.98461278855288
105.00096088939361
102.12981131795252
100.85612834772873
100.32755054020211
100.1202368592677
100.04273268596344
100.01491971940115
100.00528411411747
100.00204670116503
100.00098953905332
100.0006592740815
100.00058243590877
100.00064876225927
100.00096419009914
100.00199807471897
100.00520055062626
100.01478840577354
100.04254273530458
100.11998279340878
100.3272340085759
100.85575686525615
102.12939652575334
105.00051072739551
110.98414354513697
122.36758144668784
141.90114581942163
171.8836678387723
171.883950928664
141.90133660234045
122.36771925340737
110.9842741629182
105.00062499586313
102.12947361148603
100.85579132876303
100.32721352883661
100.11990065498588
100.04239746790978
100.01458582310856
100.00495147830755
100.00171527015142
100.00065927452711
100.00033035021917
100.00025559582276
100.00032584001212
100.0006487617681
100.0016960104159
100.00492001085378
100.01453885991398
100.04233278932841
100.1198177697536
100.32711417762651
100.85567714009119
102.12935072303758
105.00048899993656
110.98413844621233
122.36757213152924
141.9011472935033
171.88367944202298
171.8837454910387
141.9012068870414
122.36760472379609
110.98416819027535
105.00051083863016
102.12937065560452
100.85568838018054
100.32711501509262
100.11980564641185
100.04230645070292
100.01449904949274
100.00486864658264
100.00163580001403
100.00058243513037
100.00025559581069
100.00018281629433
100.000255595961
100.00058243534698
100.00163580214644
100.0048686501865
100.01449904314725
100.0423064949661
100.11980558139572
100.32711524551566
100.85568878891063
102.12937026511796
105.00051386166349
110.98416543173073
122.36761994663318
141.9011817677978
171.88375076652414
171.8837011513242
141.90112710634617
122.36758559771035
110.9841481315639
105.0004878059047
102.12935285552484
100.85567713631255
100.32711440343266
100.11981776799904
100.04233282540018
100.01453887813194
100.00492000981956
100.0016960143779
100.00064876187686
100.00032584014843
100.00025559608741
100.00033035048413
100.00065927355853
100.00171527081059
100.00495147217175
100.01458580991458
100.04239746532332
100.11990056132268
100.32721351855459
100.85579040100473
102.12947424256893
105.00062015233675
110.98426622158183
122.36772654206534
141.9013061195596
171.88394146076692
171.8836970298816
141.90112564672742
122.36758850427839
110.98413796551587
105.00051161008629
102.12939544718064
100.85575623529752
100.32723415200206
100.11998266797383
100.04254275230517
100.01478839537727
100.00520054445602
100.00199807409143
100.00096418965386
100.00064876253592
100.00058243607145
100.00065927416965
100.00098953974421
100.00204670228452
100.00528411150887
100.01491973382568
100.04273265832309
100.12023694121788
100.32755068968453
100.8561281533227
102.12981250289252
105.00095860947134
110.9846182117472
122.36808260483896
141.90173346939918
171.88458890373192
171.88364264501237
141.9011499560285
122.36763263083684
110.98421458745335
105.00065432275619
102.12963000710428
100.85611314488253
100.32773256205478
100.12062788762442
100.04332071609018
100.01567279636154
100.00616041807265
100.00300538345927
100.0019980753942
100.00169601209284
100.00163579997599
100.00171527076607
100.00204670265589
100.00310449645761
100.00634236097568
100.01597837606099
100.04379164589359
100.12129618322147
100.32861054549423
100.85718881337205
102.13087512432432
105.00202243806443
110.98569803811877
122.36921847044768
141.90306364094496
171.88659783675564
171.88370451737748
141.90125726735295
122.36779238242156
110.9845716799557
105.00125642264418
102.13059226159689
100.85750368113759
100.32958163282439
100.12290884153097
100.04595793707142
100.0185686241954
100.00922162982467
100.00616041820601
100.00520054902965
100.00492001597456
100.00486865476645
100.00495147507664
100.00528411664523
100.00634236632582
100.0095804458241
100.0192165968179
100.04702998104372
100.12453453736462
100.33184893695663
100.86042756200978
102.13411557659339
105.00527788966691
110.9889901099355
122.3726817974409
141.90712606373552
171.89270010490677
171.88388503789713
141.90166238730882
122.36859874830103
110.98605179418976
105.00370544261109
102.13428377557457
100.8625847875127
100.33602345045043
100.13050833075043
100.05441883842319
100.02759186299373
100.01856861778506
100.015672812507
100.01478840902156
100.01453885721406
100.01449904887478
100.01458582776876
100.01491973549317
100.01597837967108
100.01921659228213
100.02885280525487
100.05666624064568
100.13417110593863
100.34148635188284
100.87006804917198
102.14376542768416
105.01496865852735
110.99883214369436
122.38306084676742
141.9193446198286
171.91087119772607
171.88468625293606
141.90333926663993
122.37197395934714
110.99194099062633
105.01303745326449
102.14764729868524
100.88005873678736
100.35712739154607
100.15439189522755
100.08015868982054
100.05441882866168
100.04595793209056
100.04332065971832
100.04254272455631
100.04233280484547
100.04230646922498
100.04239747807948
100.04273263173974
100.04379162587655
100.04702994793521
100.05666623642297
100.08447982367665
100.16198528930279
100.36930290663796
100.89789365271105
102.17162869718065
105.04296131207128
111.02730570886919
122.41318937849448
141.95491653322006
171.96331811443974
171.88815947056014
141.91052453368718
122.38533050145742
111.0141943019754
105.04638125905045
102.19286466310753
100.93619895927978
100.42190707090971
100.2250894763948
100.15439229558024
100.1305084154199
100.12290899456222
100.12062815753623
100.11998296231296
100.11981805268519
100.11980576485752
100.11990082667594
100.12023708936927
100.12129638943546
100.1245348263474
100.13417127800564
100.16198549287654
100.23949325997353
100.44681957120685
100.9754420551616
102.24929646398192
105.1210590612804
111.1068962346306
122.49774068287142
142.05504006515187
172.10923494025337
171.9019696562656
141.9383494903663
122.43474118780692
111.09234879800272
105.15703073573256
102.33479469963952
101.10381778843933
100.60764492422848
100.42190673134526
100.35712776103432
100.3360238914238
100.32958221559687
100.32773335018155
100.3272342588864
100.32711468279985
100.3271154545596
100.32721407926525
100.32755124934916
100.32861081662026
100.33184946613112
100.3414865792491
100.36930321583286
100.44681974994594
100.65417772059048
101.18291502627328
102.45716971612146
105.33031404896978
111.32072724034009
122.72602711422506
142.32629525417386
172.49901853125647
171.95473646030877
142.03934459072505
122.60469278755318
111.34551422586463
105.49470042980326
102.74491385747753
101.56679070519615
101.10381722645461
100.93619895422808
100.88006010054455
100.86258611053107
100.85750341847923
100.85611381529219
100.85575686034286
100.85567804643684
100.85568962369169
100.85579100732768
100.85612895398057
100.85718890585129
100.86042834019796
100.87006808837893
100.89789405335921
100.97544333248133
101.18291509070464
101.71204364163947
102.987615009455
105.86506584368567
111.86902447560976
123.31473692027181
143.02774888916812
173.48996179282315
172.14085338608442
142.37666070785764
123.13874080712453
112.09223421271022
106.4330895813657
103.8287379507626
102.74491297144023
102.33479487751823
102.19286490912636
102.1476463207068
102.13428420778585
102.1305926522736
102.12963207387249
102.12939727668112
102.12935098865464
102.12937096576412
102.12947434575098
102.12981295613439
102.1308737497101
102.13411618442672
102.14376640494275
102.17162790970211
102.24929739293952
102.45717092066317
102.98761496937337
104.2673959732546
107.15786946269606
113.20037000899963
124.75367640569756
144.74535698536837
175.86579033655906
172.74003458924844
143.39711263307862
124.64996720939277
114.07290220177345
108.78658021105682
106.4330912041088
105.4947002666653
105.15702326180356
105.04637640474309
105.01303779999076
105.00370730075393
105.00125788263139
105.00065066686138
105.00050979422664
105.00048650891486
105.00051202240634
105.00061718678441
105.00095717271806
105.00202159668883
105.00527582689584
105.01496582258056
105.04295931845206
105.12106026036297
105.3303138063731
105.86506368764206
107.15786693670708
110.08616805261231
116.23298663777008
128.05551626905432
148.68638046598988
181.17698012839637
174.4691781060972
146.14470853882725
128.44459449139566
118.74424926091228
114.07292764607479
112.09224004025661
111.34552499639828
111.09235908233275
111.01420718426272
110.99196622464564
110.9860620932338
110.98458468525044
110.98423379594107
110.98415658490806
110.98414933411024
110.98417853320622
110.984285445724
110.98462925980486
110.98570742369591
110.98900763082038
110.99884656065402
111.02731715299979
111.10691427666093
111.32074160070582
111.86903537904912
113.2003784331413
116.23299870535965
122.64499697363097
135.091278411984
157.05784968077566
192.1056288344637
178.86315424932573
152.6262160571812
136.78758421439701
128.44457927415144
124.6499897936217
123.13875836278947
122.60471545481008
122.43476592297128
122.38532883437453
122.37199909168655
122.36862604912517
122.36781861334592
122.36763490952917
122.36759610534399
122.36759767457787
122.36763080515844
122.36774313615362
122.36810344404527
122.36923397332804
122.37270295222444
122.38307602668154
122.41319906745603
122.49776341477245
122.7260432622345
123.3147554176691
124.7536863954205
128.05552673078162
135.09128593847802
148.85306322958166
173.30799163634018
212.52486557297198
188.55634078415852
165.8743644715495
152.62620151720915
146.14470096560285
143.39714604102812
142.37669895340676
142.0393373119286
141.93835208806976
141.9105390611232
141.90339013298288
141.9016550084761
141.90125345784114
141.9011651333228
141.9011506207704
141.9011583787605
141.9011974592234
141.9013277797793
141.90174864297694
141.90307283098153
141.90714416909688
141.91935322688454
141.9549149976795
142.0550721663014
142.32630972343023
143.02776320168422
144.74536479960918
148.68638391713435
157.05786499252108
173.30799020977798
201.7791888912911
246.71281871597137
207.40712966919065
188.55631801143375
178.86314548953067
174.46918134771983
172.74002619083547
172.14085596078272
171.95474423048847
171.90198803136616
171.88811871727373
171.88469178227461
171.8838895323246
171.88371009385958
171.88367219614366
171.88366887583956
171.88368640588206
171.8837475765004
171.88394885358755
171.8845893620647
171.88658986631418
171.89270051442526
171.91087587197183
171.963302209547
172.1092520110623
172.49902274506138
173.48995876570575
175.86578767246866
181.17697259144816
192.1056279570467
212.52484817264252
246.71280182033777
296.12022108409946
