# vtk DataFile Version 2.0
Unstructured Grid Example
ASCII
DATASET UNSTRUCTURED_GRID

POINTS 961 float
0.150000006 -0.00839745998 0
0.146666661 -0.00839745998 0
0.143333331 -0.00839745998 0
0.140000001 -0.00839745998 0
0.13666667 -0.00839745998 0
0.13333334 -0.00839745998 0
0.129999995 -0.00839745998 0
0.126666665 -0.00839745998 0
0.123333335 -0.00839745998 0
0.119999997 -0.00839745998 0
0.116666667 -0.00839745998 0
0.113333337 -0.00839745998 0
0.109999999 -0.00839745998 0
0.106666669 -0.00839745998 0
0.103333332 -0.00839745998 0
0.100000001 -0.00839745998 0
0.0966666639 -0.00839745998 0
0.0933333337 -0.00839745998 0
0.0900000036 -0.00839745998 0
0.086666666 -0.00839745998 0
0.0833333358 -0.00839745998 0
0.0799999982 -0.00839745998 0
0.0766666681 -0.00839745998 0
0.0733333305 -0.00839745998 0
0.0700000003 -0.00839745998 0
0.0666666701 -0.00839745998 0
0.0633333325 -0.00839745998 0
0.0599999987 -0.00839745998 0
0.0566666685 -0.00839745998 0
0.0533333346 -0.00839745998 0
0.0500000007 -0.00839745998 0
0.148333326 -0.0112842107 0
0.144999996 -0.0112842107 0
0.141666666 -0.0112842107 0
0.138333336 -0.0112842107 0
0.135000005 -0.0112842107 0
0.13166666 -0.0112842107 0
0.12833333 -0.0112842107 0
0.125 -0.0112842107 0
0.12166667 -0.0112842107 0
0.118333332 -0.0112842107 0
0.115000002 -0.0112842107 0
0.111666664 -0.0112842107 0
0.108333334 -0.0112842107 0
0.104999997 -0.0112842107 0
0.101666667 -0.0112842107 0
0.0983333364 -0.0112842107 0
0.0949999988 -0.0112842107 0
0.0916666687 -0.0112842107 0
0.088333331 -0.0112842107 0
0.0850000009 -0.0112842107 0
0.0816666633 -0.0112842107 0
0.0783333331 -0.0112842107 0
0.075000003 -0.0112842107 0
0.0716666654 -0.0112842107 0
0.0683333352 -0.0112842107 0
0.0649999976 -0.0112842107 0
0.0616666675 -0.0112842107 0
0.0583333336 -0.0112842107 0
0.0549999997 -0.0112842107 0
0.0516666658 -0.0112842107 0
0.0483333319 -0.0112842107 0
0.146666661 -0.0141709624 0
0.143333331 -0.0141709624 0
0.140000001 -0.0141709624 0
0.13666667 -0.0141709624 0
0.13333334 -0.0141709624 0
0.129999995 -0.0141709624 0
0.126666665 -0.0141709624 0
0.123333335 -0.0141709624 0
0.119999997 -0.0141709624 0
0.116666667 -0.0141709624 0
0.113333337 -0.0141709624 0
0.109999999 -0.0141709624 0
0.106666669 -0.0141709624 0
0.103333332 -0.0141709624 0
0.100000001 -0.0141709624 0
0.0966666639 -0.0141709624 0
0.0933333337 -0.0141709624 0
0.0900000036 -0.0141709624 0
0.086666666 -0.0141709624 0
0.0833333358 -0.0141709624 0
0.0799999982 -0.0141709624 0
0.0766666681 -0.0141709624 0
0.0733333305 -0.0141709624 0
0.0700000003 -0.0141709624 0
0.0666666701 -0.0141709624 0
0.0633333325 -0.0141709624 0
0.0599999987 -0.0141709624 0
0.0566666685 -0.0141709624 0
0.0533333346 -0.0141709624 0
0.0500000007 -0.0141709624 0
0.0466666669 -0.0141709624 0
0.144999996 -0.0170577131 0
0.141666666 -0.0170577131 0
0.138333336 -0.0170577131 0
0.135000005 -0.0170577131 0
0.13166666 -0.0170577131 0
0.12833333 -0.0170577131 0
0.125 -0.0170577131 0
0.12166667 -0.0170577131 0
0.118333332 -0.0170577131 0
0.115000002 -0.0170577131 0
0.111666664 -0.0170577131 0
0.108333334 -0.0170577131 0
0.104999997 -0.0170577131 0
0.101666667 -0.0170577131 0
0.0983333364 -0.0170577131 0
0.0949999988 -0.0170577131 0
0.0916666687 -0.0170577131 0
0.088333331 -0.0170577131 0
0.0850000009 -0.0170577131 0
0.0816666633 -0.0170577131 0
0.0783333331 -0.0170577131 0
0.075000003 -0.0170577131 0
0.0716666654 -0.0170577131 0
0.0683333352 -0.0170577131 0
0.0649999976 -0.0170577131 0
0.0616666675 -0.0170577131 0
0.0583333336 -0.0170577131 0
0.0549999997 -0.0170577131 0
0.0516666658 -0.0170577131 0
0.0483333319 -0.0170577131 0
0.0450000018 -0.0170577131 0
0.143333331 -0.0199444648 0
0.140000001 -0.0199444648 0
0.13666667 -0.0199444648 0
0.13333334 -0.0199444648 0
0.129999995 -0.0199444648 0
0.126666665 -0.0199444648 0
0.123333335 -0.0199444648 0
0.119999997 -0.0199444648 0
0.116666667 -0.0199444648 0
0.113333337 -0.0199444648 0
0.109999999 -0.0199444648 0
0.106666669 -0.0199444648 0
0.103333332 -0.0199444648 0
0.100000001 -0.0199444648 0
0.0966666639 -0.0199444648 0
0.0933333337 -0.0199444648 0
0.0900000036 -0.0199444648 0
0.086666666 -0.0199444648 0
0.0833333358 -0.0199444648 0
0.0799999982 -0.0199444648 0
0.0766666681 -0.0199444648 0
0.0733333305 -0.0199444648 0
0.0700000003 -0.0199444648 0
0.0666666701 -0.0199444648 0
0.0633333325 -0.0199444648 0
0.0599999987 -0.0199444648 0
0.0566666685 -0.0199444648 0
0.0533333346 -0.0199444648 0
0.0500000007 -0.0199444648 0
0.0466666669 -0.0199444648 0
0.043333333 -0.0199444648 0
0.141666666 -0.0228312165 0
0.138333336 -0.0228312165 0
0.135000005 -0.0228312165 0
0.13166666 -0.0228312165 0
0.12833333 -0.0228312165 0
0.125 -0.0228312165 0
0.12166667 -0.0228312165 0
0.118333332 -0.0228312165 0
0.115000002 -0.0228312165 0
0.111666664 -0.0228312165 0
0.108333334 -0.0228312165 0
0.104999997 -0.0228312165 0
0.101666667 -0.0228312165 0
0.0983333364 -0.0228312165 0
0.0949999988 -0.0228312165 0
0.0916666687 -0.0228312165 0
0.088333331 -0.0228312165 0
0.0850000009 -0.0228312165 0
0.0816666633 -0.0228312165 0
0.0783333331 -0.0228312165 0
0.075000003 -0.0228312165 0
0.0716666654 -0.0228312165 0
0.0683333352 -0.0228312165 0
0.0649999976 -0.0228312165 0
0.0616666675 -0.0228312165 0
0.0583333336 -0.0228312165 0
0.0549999997 -0.0228312165 0
0.0516666658 -0.0228312165 0
0.0483333319 -0.0228312165 0
0.0450000018 -0.0228312165 0
0.0416666679 -0.0228312165 0
0.140000001 -0.0257179681 0
0.13666667 -0.0257179681 0
0.13333334 -0.0257179681 0
0.129999995 -0.0257179681 0
0.126666665 -0.0257179681 0
0.123333335 -0.0257179681 0
0.119999997 -0.0257179681 0
0.116666667 -0.0257179681 0
0.113333337 -0.0257179681 0
0.109999999 -0.0257179681 0
0.106666669 -0.0257179681 0
0.103333332 -0.0257179681 0
0.100000001 -0.0257179681 0
0.0966666639 -0.0257179681 0
0.0933333337 -0.0257179681 0
0.0900000036 -0.0257179681 0
0.086666666 -0.0257179681 0
0.0833333358 -0.0257179681 0
0.0799999982 -0.0257179681 0
0.0766666681 -0.0257179681 0
0.0733333305 -0.0257179681 0
0.0700000003 -0.0257179681 0
0.0666666701 -0.0257179681 0
0.0633333325 -0.0257179681 0
0.0599999987 -0.0257179681 0
0.0566666685 -0.0257179681 0
0.0533333346 -0.0257179681 0
0.0500000007 -0.0257179681 0
0.0466666669 -0.0257179681 0
0.043333333 -0.0257179681 0
0.0399999991 -0.0257179681 0
0.138333336 -0.0286047198 0
0.135000005 -0.0286047198 0
0.13166666 -0.0286047198 0
0.12833333 -0.0286047198 0
0.125 -0.0286047198 0
0.12166667 -0.0286047198 0
0.118333332 -0.0286047198 0
0.115000002 -0.0286047198 0
0.111666664 -0.0286047198 0
0.108333334 -0.0286047198 0
0.104999997 -0.0286047198 0
0.101666667 -0.0286047198 0
0.0983333364 -0.0286047198 0
0.0949999988 -0.0286047198 0
0.0916666687 -0.0286047198 0
0.088333331 -0.0286047198 0
0.0850000009 -0.0286047198 0
0.0816666633 -0.0286047198 0
0.0783333331 -0.0286047198 0
0.075000003 -0.0286047198 0
0.0716666654 -0.0286047198 0
0.0683333352 -0.0286047198 0
0.0649999976 -0.0286047198 0
0.0616666675 -0.0286047198 0
0.0583333336 -0.0286047198 0
0.0549999997 -0.0286047198 0
0.0516666658 -0.0286047198 0
0.0483333319 -0.0286047198 0
0.0450000018 -0.0286047198 0
0.0416666679 -0.0286047198 0
0.038333334 -0.0286047198 0
0.13666667 -0.0314914696 0
0.13333334 -0.0314914696 0
0.129999995 -0.0314914696 0
0.126666665 -0.0314914696 0
0.123333335 -0.0314914696 0
0.119999997 -0.0314914696 0
0.116666667 -0.0314914696 0
0.113333337 -0.0314914696 0
0.109999999 -0.0314914696 0
0.106666669 -0.0314914696 0
0.103333332 -0.0314914696 0
0.100000001 -0.0314914696 0
0.0966666639 -0.0314914696 0
0.0933333337 -0.0314914696 0
0.0900000036 -0.0314914696 0
0.086666666 -0.0314914696 0
0.0833333358 -0.0314914696 0
0.0799999982 -0.0314914696 0
0.0766666681 -0.0314914696 0
0.0733333305 -0.0314914696 0
0.0700000003 -0.0314914696 0
0.0666666701 -0.0314914696 0
0.0633333325 -0.0314914696 0
0.0599999987 -0.0314914696 0
0.0566666685 -0.0314914696 0
0.0533333346 -0.0314914696 0
0.0500000007 -0.0314914696 0
0.0466666669 -0.0314914696 0
0.043333333 -0.0314914696 0
0.0399999991 -0.0314914696 0
0.0366666652 -0.0314914696 0
0.135000005 -0.0343782231 0
0.13166666 -0.0343782231 0
0.12833333 -0.0343782231 0
0.125 -0.0343782231 0
0.12166667 -0.0343782231 0
0.118333332 -0.0343782231 0
0.115000002 -0.0343782231 0
0.111666664 -0.0343782231 0
0.108333334 -0.0343782231 0
0.104999997 -0.0343782231 0
0.101666667 -0.0343782231 0
0.0983333364 -0.0343782231 0
0.0949999988 -0.0343782231 0
0.0916666687 -0.0343782231 0
0.088333331 -0.0343782231 0
0.0850000009 -0.0343782231 0
0.0816666633 -0.0343782231 0
0.0783333331 -0.0343782231 0
0.075000003 -0.0343782231 0
0.0716666654 -0.0343782231 0
0.0683333352 -0.0343782231 0
0.0649999976 -0.0343782231 0
0.0616666675 -0.0343782231 0
0.0583333336 -0.0343782231 0
0.0549999997 -0.0343782231 0
0.0516666658 -0.0343782231 0
0.0483333319 -0.0343782231 0
0.0450000018 -0.0343782231 0
0.0416666679 -0.0343782231 0
0.038333334 -0.0343782231 0
0.0350000001 -0.0343782231 0
0.13333334 -0.0372649729 0
0.129999995 -0.0372649729 0
0.126666665 -0.0372649729 0
0.123333335 -0.0372649729 0
0.119999997 -0.0372649729 0
0.116666667 -0.0372649729 0
0.113333337 -0.0372649729 0
0.109999999 -0.0372649729 0
0.106666669 -0.0372649729 0
0.103333332 -0.0372649729 0
0.100000001 -0.0372649729 0
0.0966666639 -0.0372649729 0
0.0933333337 -0.0372649729 0
0.0900000036 -0.0372649729 0
0.086666666 -0.0372649729 0
0.0833333358 -0.0372649729 0
0.0799999982 -0.0372649729 0
0.0766666681 -0.0372649729 0
0.0733333305 -0.0372649729 0
0.0700000003 -0.0372649729 0
0.0666666701 -0.0372649729 0
0.0633333325 -0.0372649729 0
0.0599999987 -0.0372649729 0
0.0566666685 -0.0372649729 0
0.0533333346 -0.0372649729 0
0.0500000007 -0.0372649729 0
0.0466666669 -0.0372649729 0
0.043333333 -0.0372649729 0
0.0399999991 -0.0372649729 0
0.0366666652 -0.0372649729 0
0.0333333351 -0.0372649729 0
0.13166666 -0.0401517227 0
0.12833333 -0.0401517227 0
0.125 -0.0401517227 0
0.12166667 -0.0401517227 0
0.118333332 -0.0401517227 0
0.115000002 -0.0401517227 0
0.111666664 -0.0401517227 0
[...]
POINT_DATA 961
SCALARS Temp float 1
LOOKUP_TABLE default
407.09919343744264
358.4865212142876
317.9390777768904
286.1699404000807
262.43344545280314
245.50464412960872
233.9714491721933
226.45883942850972
221.7739592034497
218.97284831332848
217.36431077648894
216.47550171989107
216.00202862147793
215.7584190709907
215.63719120636046
215.57893586442287
215.55244262030408
215.5426720890755
215.54453671921553
215.56122037905953
215.60699835060416
215.7157540302882
215.9575335001159
216.4657877016123
217.47633225642124
219.3746517913864
222.74060584328842
228.37181660666505
237.26525144149593
250.55158661023972
269.6464052493223
358.48653615292375
311.61368846159877
274.1006540455482
245.34167236355145
224.28558717256945
209.55751216529785
199.7093876633791
193.4079251501376
189.54443466396725
187.27116596103542
185.9852616462893
185.28467481838425
184.91635967416832
184.72919549988413
184.63721075495224
184.59376711893154
184.57502599158127
184.5704665592768
184.57867026005866
184.60764714454916
184.6802288944818
184.8463354927418
185.20476454861773
185.93667265198215
187.35005349820466
189.9283952273231
194.36828588577904
201.58426749167322
212.6604142797868
228.7495038484693
250.55160617507553
317.93903256181176
274.1006335841735
239.53309917870462
213.424101785041
194.55241710689586
181.49997803613442
172.85725066236043
167.3732933079642
164.03476275555136
162.08191015874897
160.9825316417876
160.38585623540132
160.0731181302218
159.9146038827829
159.83697558670525
159.80076984987767
159.78630448794652
159.7859842932621
159.80165103287197
159.8467451976324
159.9542914815797
160.1928872545707
160.69325137690748
161.68650401661478
163.55118392460452
166.8587020444831
172.39854700728472
181.15934383646905
194.24313368231313
212.6604048696565
237.2652613569282
286.1698852779136
245.3416436012895
213.42410306150475
189.4905897749262
172.28689107863792
160.43434608802644
152.60506937026932
147.64305662114822
144.62265298818215
142.85462501942706
141.85793242825787
141.31599672481892
141.0313493315906
140.88679685918495
140.8160319517028
140.7835014071426
140.77196357304078
140.77606272164073
140.80097959386285
140.86630692143683
141.0165247289342
141.34034264678257
142.00098158919437
143.2772073336387
145.60971500798675
149.63968366101793
156.2188740062153
166.36733795333657
181.15935908445837
201.58428050325134
228.3718081499393
262.4333964538931
224.2855618430231
194.55240379229804
172.2869538312939
156.2806849298965
145.23890596089555
137.92917839764917
133.28331966993093
130.44622782793377
128.77977582890026
127.83705020059546
127.32269525263467
127.05166761238206
126.91369622281907
126.84622380226128
126.81583955575599
126.80691591644603
126.81612317753154
126.85219900844851
126.94140055134656
127.14017524573423
127.55715556953986
128.38581730268294
129.94614987300145
132.7279110812802
137.4206320932804
144.9097095141887
156.21886740117418
172.39854249863353
194.36828405245777
222.7406118051825
245.50459607577855
209.55754584045198
181.50002254716534
160.43431603800607
145.23889437391512
134.71574087725992
127.72101905592312
123.25738476064998
120.52099849560356
118.90787135730478
117.99229334142495
117.49126781421803
117.22660544978953
117.09168534397908
117.02591243115177
116.99712416143645
116.99094781132699
117.00604995126815
117.05486423019873
117.17039971804594
117.42065038658252
117.9323615270974
118.92469452954576
120.74987302664599
123.93209142333416
129.18955844418903
137.4206292997138
149.63968494308693
166.8587090019985
189.92837432243834
219.3746454464118
233.97145730778144
199.7094094682759
172.85729498060013
152.60503417115802
137.92916485898158
127.72101571887113
120.9081124625796
116.5447118417115
113.86122625193491
112.27491948701163
111.37244657818984
110.87762422981514
110.61585745087262
110.48238514594776
110.41765859297404
110.39034141839215
110.38716864030741
110.40877734712836
110.4712307714339
110.61388537437749
110.9149912286466
111.51637387000642
112.65702828870151
114.7118378635211
118.2262298048005
123.93208799034986
132.7279037680035
145.60970430511142
163.55118211505444
187.35005131593888
217.47634104158809
226.45885442752038
193.40795131885724
167.3732388540959
147.6430259241872
133.28331859332425
123.25739449865323
116.54470955819039
112.23405826892522
109.57721393365688
108.00387172461808
107.10749024686699
106.61546584204648
106.35500963665935
106.22229905543483
106.15838430054178
106.13255943300098
106.13258309427434
106.16096027766396
106.23707747111304
106.40580477501187
106.75376681605616
107.43426464629367
108.70016406781706
110.94052116455438
114.71183605293112
120.7498704787213
129.94615144034816
143.2772084899419
161.6864897798288
185.93665352630305
216.46577776856222
221.77396660462435
189.54446785068447
164.03471807731395
144.62263530892335
130.44622978879607
120.52098974779119
113.86122429118534
109.57722017043355
106.93328452347532
105.36597925511964
104.47233896264677
103.98155243857968
103.72171560106678
103.58949144209481
103.5263164097143
103.50201279797085
103.50526747178036
103.54025071937959
103.62917275033398
103.82131917364677
104.2095873884052
104.95523255718686
106.3198349728506
108.70016575924257
112.65702869544897
118.9246938128158
128.38581596618525
142.00097745415417
160.6932550465085
185.20477131743286
215.9575522916182
218.97288439026593
187.27110202710557
162.08188757438805
142.8546217564815
128.7797880492568
118.90787040701464
112.27492449027811
108.00387038556414
105.36597816859243
103.8013932773969
102.90896122166444
102.41873011895872
102.15922820889124
102.02738713655627
101.9649247019262
101.94211492767931
101.94844684819563
101.98947412167746
102.08962640760882
102.30144485690266
102.72212686601961
103.51791758616312
104.95523136630655
107.43426431913052
111.51637364798293
117.93236101138297
127.55715536764393
141.34032588976982
160.19287272261275
184.8463187569156
215.71574545352064
217.36436953578917
185.98521171048853
160.98251942257036
141.85793788331654
127.83704055741225
117.99229464308317
111.37245342288291
107.10749048343087
104.4723404595799
102.9089611074806
102.01706615731025
101.52711088834049
101.26783890088569
101.13634444921372
101.07456518282112
101.05314996616332
101.0622390630395
101.10845352177101
101.21783381623501
101.44512515334122
101.89020902293058
102.72212809129336
104.20958776789587
106.75376571936246
110.91498945634048
117.42064913789527
127.14017237624843
141.01652298602104
159.95429660473573
184.68023740594265
215.60698505954775
216.47544171650267
185.28464223785465
160.3858542129397
141.3160089646724
127.32268705996509
117.49127158304812
110.87762029535449
106.615466619538
103.98154976366577
102.4187301094403
101.52711178191832
101.03734301228724
100.77827859306424
100.64712227309337
100.5859835843178
100.56580629580225
100.57722394220617
100.62762075434907
100.74411516366982
100.98281902244857
101.44512606355927
102.30144553340571
103.82131865494927
106.4058070713717
110.61388878768744
117.17040587518419
126.94139594306476
140.86630122373342
159.8467463830808
184.60764892990773
215.5612343454131
216.0020005359642
184.91635419677644
160.07313547536964
141.03133663595153
127.05166966970329
117.22661694856909
110.61585662814713
106.35501314474725
103.7217143145839
102.1592290718516
101.26783839202945
100.7782782993487
100.51945796255734
100.38865788585798
100.32811622344558
100.30899566290205
100.32227788796123
100.37585324581424
100.49750423804164
100.74411447052452
101.2178335890251
102.08962736426683
103.62917077397653
106.23707671033675
110.47122942892854
117.05486211157526
126.85219739079372
140.80097805588068
159.801657605311
184.57864761296725
215.54454046214732
215.75839651886363
184.7291942699151
159.91462671279643
140.88678535942537
126.91369994868623
117.09167839252369
110.48238559880168
106.22229638033872
103.58949062017037
102.02738845683692
101.13634382221362
100.64712224813704
100.38865781520008
100.25828089667107
100.19831965117078
100.18009109138734
100.19480820058548
100.25067514268795
100.37585314260109
100.62762093858596
101.10845343261224
101.98947471720636
103.54025053905961
106.16096232114464
110.40878097266766
117.00604690250292
126.8161191823864
140.77605794237414
159.78598552588852
184.57047032148367
215.54267135246116
215.63719020539173
184.63722977394906
159.83696215311335
140.81603262819664
126.84623857462329
117.02591084057124
110.4176642152938
106.15838369504228
103.52631636832348
101.96492442104963
101.07456516969566
100.58598379377092
100.32811615125692
100.19831972798161
100.13898672240047
100.12154225976587
100.13735174294276
100.19480813687963
100.32227771657404
100.57722370073265
101.06223909278503
101.94844642957739
103.5052656124729
106.13258237807463
110.38716719377278
116.99094687578534
126.80691513672565
140.7719632306583
159.7862888120976
184.5750221804146
215.5524343533879
215.57893640173927
184.59378918444594
159.80075747520388
140.783504525152
126.81582857336188
116.99712396661228
110.39033654036638
106.13255969818056
103.50201374745843
101.94211463599136
101.05315007617175
100.56580578159925
100.30899568600356
100.1800909772126
100.12154226164968
100.10486561641726
100.12154229188079
100.18009102229148
100.30899586263523
100.56580601053389
101.05314980638352
101.94211559377233
103.50201277360094
106.13256177577674
110.39033933159156
116.99712149996084
126.81583702510882
140.7834971202435
159.80077431681414
184.5937574607024
215.57893799543626
215.55246424996676
184.57500277348007
159.7863110811537
140.77198198578012
126.80691265469171
116.99095542111708
110.38716745196012
106.1325850869023
103.50526560863905
101.94844753504769
101.06223985236413
100.5772236931525
100.32227813627911
100.19480817248518
100.1373517732481
100.12154231494128
100.13898677118279
100.19831958837945
100.32811622171766
100.58598343532518
101.0745645916944
101.9649244201198
103.5263146810428
106.15838338083063
110.41765825313567
117.02591210924342
126.84622420572533
140.81601443638803
159.83697274187517
184.63719431792654
215.63718309565678
215.54270367569478
184.57044900422164
159.78599489100006
140.77604530004388
126.81612218187121
117.0060421563681
110.40877742402976
106.16096375447016
103.5402488408109
101.98947516496753
101.1084530026233
100.62762060748778
100.37585304923067
100.25067507649325
100.19480825382833
100.18009110697376
100.19831966937977
100.25828098452548
100.38865792645989
100.64712208357388
101.13634432501827
102.0273878052921
103.58949174295013
106.22229786067842
110.48238355953862
117.09168335835481
126.9136931617482
140.88679518784184
159.91459563401105
184.7291868463559
215.75842025770427
215.54450386018473
184.57866005744665
159.80166794691831
140.8009634108923
126.85220155981183
117.05485695110448
110.47123013267765
106.23707443294629
103.6291713137497
102.08962790373208
101.2178331041689
100.74411497994957
100.49750413010418
100.37585317538856
100.32227787768161
100.30899565652354
100.32811617057426
100.38865796176705
100.51945785323409
100.77827817275603
101.267838735476
102.15922872605962
103.72171522424539
106.35501117118658
110.6158603418415
117.22661120764985
127.05166250583729
141.03135204784635
160.07311769233365
184.9163598182897
216.00203902036165
215.56121303643326
184.60765979658413
159.84672788456746
140.8663044561538
126.94138842641124
117.17040027138505
110.61389091330452
106.40580429596602
103.82131942084709
102.30144480017908
101.44512549009558
100.98281884883538
100.74411502815255
100.62762088180746
100.57722396666144
100.56580629983681
100.58598362290408
100.6471223186412
100.77827849289285
101.03734326171411
101.52711136562893
102.41873068639077
103.98155047444774
106.6154650694676
110.87762306257268
117.49126619286682
127.32269333584587
141.3159846504679
160.38584885042843
185.28466616467716
216.47550237597423
215.60699431048846
184.68024691281494
159.95427540058807
141.016527830411
127.14016460801491
117.42065016872546
110.9149858650413
106.75376664923668
104.20958871465436
102.72212727830303
101.89020995527426
101.44512500028287
101.21783369828752
101.10845348683185
101.06223901138155
101.05314996649933
101.07456524954456
101.13634437766625
101.26783884670432
101.52711105680368
102.01706591735537
102.90896156683779
104.47233913234383
107.10749268045964
111.3724494076993
117.9922897806571
127.83705217308372
141.85792705325764
160.98253097777823
185.98526172368167
217.36430752247938
215.71575131858884
184.84629157102887
160.19287614248023
141.34031519955323
127.55714737139614
117.93236425553468
111.51636950046806
107.43426564231432
104.95523023702454
103.51791667846011
102.72212657476378
102.30144459998071
102.08962665847557
101.9894742079261
101.94844685617576
101.9421149420073
101.96492470866974
102.02738707899631
102.1592283342298
102.41872988283478
102.90896155888997
103.80139363129219
105.36597722930537
108.00387218312626
112.2749212248262
118.90787576932898
128.77977278490445
142.85462330690024
162.08191829976934
187.27117718640895
218.9728649258117
215.9575802330135
185.20476258737003
160.69327631944512
142.00097858498805
128.38582658297477
118.92469536464453
112.65703548027591
108.70017151626425
106.31983718658765
104.95523722972406
104.20959007095789
103.82132172534533
103.62917533838936
103.54025320635742
103.50527013309662
103.5020155094639
103.52631892586962
103.58949402120842
103.7217181971601
103.98155467778555
104.47234143002899
105.36598038449128
106.93328731096149
109.5772183703273
113.86122122707762
120.52099692956381
130.44622054800683
144.62264259511434
164.03475641585888
189.5444057598683
221.7739412022393
216.46577093352766
185.93667894822502
161.6864920200281
143.27721060246904
129.94616623221998
120.74987275329616
114.7118448045606
110.94052522156906
108.70016780673565
107.43426890019202
106.75377086901327
106.40580963090042
106.23708207895693
106.16096465963373
106.13258742617543
106.13256371889995
106.15838857515878
106.22230339861005
106.35501374776157
106.61547023746972
107.1074943532234
108.00387489868416
109.57721834997562
112.2340589055168
116.54471514567406
123.25738483932535
133.28331966409905
147.64304726959443
167.37329068912408
193.40791838984723
226.4588382389458
217.47632576292426
187.35007059421196
163.55117779294625
145.60971436204184
132.72790279138866
123.93209551905028
118.2262366914061
114.71183996846823
112.65703446183633
111.51637730335086
110.9149944698104
110.61388866389852
110.4712338574157
110.40878084224755
110.3871722476724
110.39034471171034
110.41766210989302
110.4823886100983
110.61586070134163
110.87762772275954
111.37244946912564
112.27492354583029
113.86122782010305
116.54471346861015
120.90812152765699
127.7210144586524
137.92917645831642
152.60506938239826
172.85724678773525
199.70938565964767
233.9714592490852
219.37465346051957
189.92835891244334
166.8586970516484
149.63969227661576
137.42062252759888
129.18956199671916
123.93208958677279
120.74987142523156
118.92469397029733
117.93236083642978
117.42065114405177
117.17040029635679
117.05486440885761
117.00605001786339
116.99094779037131
116.99712424090924
117.0259125602444
117.09168541662805
117.22660588240015
117.49126797069998
117.99229333456906
118.90787247360156
120.52099778602673
123.25738801164725
127.72101301943394
134.71574338908624
145.23891257022996
160.4343571149359
181.49999214628278
209.55752197196242
245.50459776657658
222.74060955415288
194.36825820336665
172.39853719531808
156.21885010160534
144.90970469494854
137.4206275255645
132.72790071503115
129.94614553381388
128.38580962195195
127.55714766976297
127.14016740351822
126.94139234234639
126.85219153016877
126.81611591488775
126.80690815805653
126.81583222218885
126.84621632761485
126.91368857348658
127.05166022387097
127.32268770500464
127.8370434615679
128.77976775711275
130.44622065284287
133.28331764144596
137.9291695378223
145.23890658903014
156.28070247330066
172.2869019654299
194.55236602243403
224.28553744462502
262.4333943230072
228.37182045921497
201.58429479987925
181.1593944982279
166.3673546627635
156.21890180354296
149.63970371446985
145.60973473260006
143.2772278749251
142.00100167255678
141.3403646840465
141.01654659642244
140.86632813707033
140.80100057993783
140.7760835424932
140.77198463172056
140.78352245887194
140.81605300315525
140.8868182794987
141.03137020467548
141.31601759675453
141.85795381666935
142.85464478337718
144.62267450344586
147.64307052379218
152.60508728441965
160.4343722762775
172.28692945390918
189.49056116104566
213.4240677222419
245.3416146287635
286.1698893498801
237.26527208272722
212.6604378735504
194.24314975939765
181.15937208009984
172.39857403784154
166.85872112399167
163.55120968568824
161.68652560712866
160.69327252559842
160.19290832819058
159.95431188352615
159.8467665655135
159.8016727130422
159.78600534304633
159.7863261366873
159.80079124182632
159.83699674688359
159.91462519263075
160.0731393671569
160.38587774006737
160.9825518404586
162.0819309034587
164.03478585947536
167.37330946670806
172.85727125084998
181.5000069866362
194.55238235932947
213.42406868830435
239.53306275722605
274.1006009652875
317.9390299367155
250.55160894241413
228.74952738407845
212.66041706640468
201.58428257316075
194.36829275253152
189.92840198111483
187.35006128450237
185.9366800650511
185.2047745666458
184.84634528323932
184.68023775170974
184.60765576081374
184.57867868530835
184.57047544361888
184.57503478247875
184.59377595699212
184.63721999643587
184.72920404567893
184.91636850669056
185.2846840433223
185.98526971020414
187.2711752039755
189.54443828878283
193.4079317471323
199.70939980501464
209.5575326619082
224.2855471798963
245.34162010962518
274.1005941387523
311.6136310280353
358.4864411784383
269.646421660256
250.55158102088373
237.26525818105324
228.3718223556406
222.74060283137638
219.37465612731225
217.4763319599018
216.46578809901837
215.9575337584891
215.7157525276078
215.60699829783715
215.56122050351493
215.54453667452282
215.5426724671522
215.55244269980645
215.57893594004548
215.6371907787828
215.75841930707924
216.00202876672006
216.47550079332206
217.3643104928498
218.9728501100982
221.77395577649077
226.45883878829002
233.97145325311624
245.504592307178
262.43339478787044
286.16987965972527
317.93900614611124
358.48642330684754
407.0987822581813
