# vtk DataFile Version 2.0
Unstructured Grid Example
ASCII
DATASET UNSTRUCTURED_GRID

POINTS 961 float
0.150000006 -0.00839745998 0
0.146666661 -0.00839745998 0
0.143333331 -0.00839745998 0
0.140000001 -0.00839745998 0
0.13666667 -0.00839745998 0
0.13333334 -0.00839745998 0
0.129999995 -0.00839745998 0
0.126666665 -0.00839745998 0
0.123333335 -0.00839745998 0
0.119999997 -0.00839745998 0
0.116666667 -0.00839745998 0
0.113333337 -0.00839745998 0
0.109999999 -0.00839745998 0
0.106666669 -0.00839745998 0
0.103333332 -0.00839745998 0
0.100000001 -0.00839745998 0
0.0966666639 -0.00839745998 0
0.0933333337 -0.00839745998 0
0.0900000036 -0.00839745998 0
0.086666666 -0.00839745998 0
0.0833333358 -0.00839745998 0
0.0799999982 -0.00839745998 0
0.0766666681 -0.00839745998 0
0.0733333305 -0.00839745998 0
0.0700000003 -0.00839745998 0
0.0666666701 -0.00839745998 0
0.0633333325 -0.00839745998 0
0.0599999987 -0.00839745998 0
0.0566666685 -0.00839745998 0
0.0533333346 -0.00839745998 0
0.0500000007 -0.00839745998 0
0.148333326 -0.0112842107 0
0.144999996 -0.0112842107 0
0.141666666 -0.0112842107 0
0.138333336 -0.0112842107 0
0.135000005 -0.0112842107 0
0.13166666 -0.0112842107 0
0.12833333 -0.0112842107 0
0.125 -0.0112842107 0
0.12166667 -0.0112842107 0
0.118333332 -0.0112842107 0
0.115000002 -0.0112842107 0
0.111666664 -0.0112842107 0
0.108333334 -0.0112842107 0
0.104999997 -0.0112842107 0
0.101666667 -0.0112842107 0
0.0983333364 -0.0112842107 0
0.0949999988 -0.0112842107 0
0.0916666687 -0.0112842107 0
0.088333331 -0.0112842107 0
0.0850000009 -0.0112842107 0
0.0816666633 -0.0112842107 0
0.0783333331 -0.0112842107 0
0.075000003 -0.0112842107 0
0.0716666654 -0.0112842107 0
0.0683333352 -0.0112842107 0
0.0649999976 -0.0112842107 0
0.0616666675 -0.0112842107 0
0.0583333336 -0.0112842107 0
0.0549999997 -0.0112842107 0
0.0516666658 -0.0112842107 0
0.0483333319 -0.0112842107 0
0.146666661 -0.0141709624 0
0.143333331 -0.0141709624 0
0.140000001 -0.0141709624 0
0.13666667 -0.0141709624 0
0.13333334 -0.0141709624 0
0.129999995 -0.0141709624 0
0.126666665 -0.0141709624 0
0.123333335 -0.0141709624 0
0.119999997 -0.0141709624 0
0.116666667 -0.0141709624 0
0.113333337 -0.0141709624 0
0.109999999 -0.0141709624 0
0.106666669 -0.0141709624 0
0.103333332 -0.0141709624 0
0.100000001 -0.0141709624 0
0.0966666639 -0.0141709624 0
0.0933333337 -0.0141709624 0
0.0900000036 -0.0141709624 0
0.086666666 -0.0141709624 0
0.0833333358 -0.0141709624 0
0.0799999982 -0.0141709624 0
0.0766666681 -0.0141709624 0
0.0733333305 -0.0141709624 0
0.0700000003 -0.0141709624 0
0.0666666701 -0.0141709624 0
0.0633333325 -0.0141709624 0
0.0599999987 -0.0141709624 0
0.0566666685 -0.0141709624 0
0.0533333346 -0.0141709624 0
0.0500000007 -0.0141709624 0
0.0466666669 -0.0141709624 0
0.144999996 -0.0170577131 0
0.141666666 -0.0170577131 0
0.138333336 -0.0170577131 0
0.135000005 -0.0170577131 0
0.13166666 -0.0170577131 0
0.12833333 -0.0170577131 0
0.125 -0.0170577131 0
0.12166667 -0.0170577131 0
0.118333332 -0.0170577131 0
0.115000002 -0.0170577131 0
0.111666664 -0.0170577131 0
0.108333334 -0.0170577131 0
0.104999997 -0.0170577131 0
0.101666667 -0.0170577131 0
0.0983333364 -0.0170577131 0
0.0949999988 -0.0170577131 0
0.0916666687 -0.0170577131 0
0.088333331 -0.0170577131 0
0.0850000009 -0.0170577131 0
0.0816666633 -0.0170577131 0
0.0783333331 -0.0170577131 0
0.075000003 -0.0170577131 0
0.0716666654 -0.0170577131 0
0.0683333352 -0.0170577131 0
0.0649999976 -0.0170577131 0
0.0616666675 -0.0170577131 0
0.0583333336 -0.0170577131 0
0.0549999997 -0.0170577131 0
0.0516666658 -0.0170577131 0
0.0483333319 -0.0170577131 0
0.0450000018 -0.0170577131 0
0.143333331 -0.0199444648 0
0.140000001 -0.0199444648 0
0.13666667 -0.0199444648 0
0.13333334 -0.0199444648 0
0.129999995 -0.0199444648 0
0.126666665 -0.0199444648 0
0.123333335 -0.0199444648 0
0.119999997 -0.0199444648 0
0.116666667 -0.0199444648 0
0.113333337 -0.0199444648 0
0.109999999 -0.0199444648 0
0.106666669 -0.0199444648 0
0.103333332 -0.0199444648 0
0.100000001 -0.0199444648 0
0.0966666639 -0.0199444648 0
0.0933333337 -0.0199444648 0
0.0900000036 -0.0199444648 0
0.086666666 -0.0199444648 0
0.0833333358 -0.0199444648 0
0.0799999982 -0.0199444648 0
0.0766666681 -0.0199444648 0
0.0733333305 -0.0199444648 0
0.0700000003 -0.0199444648 0
0.0666666701 -0.0199444648 0
0.0633333325 -0.0199444648 0
0.0599999987 -0.0199444648 0
0.0566666685 -0.0199444648 0
0.0533333346 -0.0199444648 0
0.0500000007 -0.0199444648 0
0.0466666669 -0.0199444648 0
0.043333333 -0.0199444648 0
0.141666666 -0.0228312165 0
0.138333336 -0.0228312165 0
0.135000005 -0.0228312165 0
0.13166666 -0.0228312165 0
0.12833333 -0.0228312165 0
0.125 -0.0228312165 0
0.12166667 -0.0228312165 0
0.118333332 -0.0228312165 0
0.115000002 -0.0228312165 0
0.111666664 -0.0228312165 0
0.108333334 -0.0228312165 0
0.104999997 -0.0228312165 0
0.101666667 -0.0228312165 0
0.0983333364 -0.0228312165 0
0.0949999988 -0.0228312165 0
0.0916666687 -0.0228312165 0
0.088333331 -0.0228312165 0
0.0850000009 -0.0228312165 0
0.0816666633 -0.0228312165 0
0.0783333331 -0.0228312165 0
0.075000003 -0.0228312165 0
0.0716666654 -0.0228312165 0
0.0683333352 -0.0228312165 0
0.0649999976 -0.0228312165 0
0.0616666675 -0.0228312165 0
0.0583333336 -0.0228312165 0
0.0549999997 -0.0228312165 0
0.0516666658 -0.0228312165 0
0.0483333319 -0.0228312165 0
0.0450000018 -0.0228312165 0
0.0416666679 -0.0228312165 0
0.140000001 -0.0257179681 0
0.13666667 -0.0257179681 0
0.13333334 -0.0257179681 0
0.129999995 -0.0257179681 0
0.126666665 -0.0257179681 0
0.123333335 -0.0257179681 0
0.119999997 -0.0257179681 0
0.116666667 -0.0257179681 0
0.113333337 -0.0257179681 0
0.109999999 -0.0257179681 0
0.106666669 -0.0257179681 0
0.103333332 -0.0257179681 0
0.100000001 -0.0257179681 0
0.0966666639 -0.0257179681 0
0.0933333337 -0.0257179681 0
0.0900000036 -0.0257179681 0
0.086666666 -0.0257179681 0
0.0833333358 -0.0257179681 0
0.0799999982 -0.0257179681 0
0.0766666681 -0.0257179681 0
0.0733333305 -0.0257179681 0
0.0700000003 -0.0257179681 0
0.0666666701 -0.0257179681 0
0.0633333325 -0.0257179681 0
0.0599999987 -0.0257179681 0
0.0566666685 -0.0257179681 0
0.0533333346 -0.0257179681 0
0.0500000007 -0.0257179681 0
0.0466666669 -0.0257179681 0
0.043333333 -0.0257179681 0
0.0399999991 -0.0257179681 0
0.138333336 -0.0286047198 0
0.135000005 -0.0286047198 0
0.13166666 -0.0286047198 0
0.12833333 -0.0286047198 0
0.125 -0.0286047198 0
0.12166667 -0.0286047198 0
0.118333332 -0.0286047198 0
0.115000002 -0.0286047198 0
0.111666664 -0.0286047198 0
0.108333334 -0.0286047198 0
0.104999997 -0.0286047198 0
0.101666667 -0.0286047198 0
0.0983333364 -0.0286047198 0
0.0949999988 -0.0286047198 0
0.0916666687 -0.0286047198 0
0.088333331 -0.0286047198 0
0.0850000009 -0.0286047198 0
0.0816666633 -0.0286047198 0
0.0783333331 -0.0286047198 0
0.075000003 -0.0286047198 0
0.0716666654 -0.0286047198 0
0.0683333352 -0.0286047198 0
0.0649999976 -0.0286047198 0
0.0616666675 -0.0286047198 0
0.0583333336 -0.0286047198 0
0.0549999997 -0.0286047198 0
0.0516666658 -0.0286047198 0
0.0483333319 -0.0286047198 0
0.0450000018 -0.0286047198 0
0.0416666679 -0.0286047198 0
0.038333334 -0.0286047198 0
0.13666667 -0.0314914696 0
0.13333334 -0.0314914696 0
0.129999995 -0.0314914696 0
0.126666665 -0.0314914696 0
0.123333335 -0.0314914696 0
0.119999997 -0.0314914696 0
0.116666667 -0.0314914696 0
0.113333337 -0.0314914696 0
0.109999999 -0.0314914696 0
0.106666669 -0.0314914696 0
0.103333332 -0.0314914696 0
0.100000001 -0.0314914696 0
0.0966666639 -0.0314914696 0
0.0933333337 -0.0314914696 0
0.0900000036 -0.0314914696 0
0.086666666 -0.0314914696 0
0.0833333358 -0.0314914696 0
0.0799999982 -0.0314914696 0
0.0766666681 -0.0314914696 0
0.0733333305 -0.0314914696 0
0.0700000003 -0.0314914696 0
0.0666666701 -0.0314914696 0
0.0633333325 -0.0314914696 0
0.0599999987 -0.0314914696 0
0.0566666685 -0.0314914696 0
0.0533333346 -0.0314914696 0
0.0500000007 -0.0314914696 0
0.0466666669 -0.0314914696 0
0.043333333 -0.0314914696 0
0.0399999991 -0.0314914696 0
0.0366666652 -0.0314914696 0
0.135000005 -0.0343782231 0
0.13166666 -0.0343782231 0
0.12833333 -0.0343782231 0
0.125 -0.0343782231 0
0.12166667 -0.0343782231 0
0.118333332 -0.0343782231 0
0.115000002 -0.0343782231 0
0.111666664 -0.0343782231 0
0.108333334 -0.0343782231 0
0.104999997 -0.0343782231 0
0.101666667 -0.0343782231 0
0.0983333364 -0.0343782231 0
0.0949999988 -0.0343782231 0
0.0916666687 -0.0343782231 0
0.088333331 -0.0343782231 0
0.0850000009 -0.0343782231 0
0.0816666633 -0.0343782231 0
0.0783333331 -0.0343782231 0
0.075000003 -0.0343782231 0
0.0716666654 -0.0343782231 0
0.0683333352 -0.0343782231 0
0.0649999976 -0.0343782231 0
0.0616666675 -0.0343782231 0
0.0583333336 -0.0343782231 0
0.0549999997 -0.0343782231 0
0.0516666658 -0.0343782231 0
0.0483333319 -0.0343782231 0
0.0450000018 -0.0343782231 0
0.0416666679 -0.0343782231 0
0.038333334 -0.0343782231 0
0.0350000001 -0.0343782231 0
0.13333334 -0.0372649729 0
0.129999995 -0.0372649729 0
0.126666665 -0.0372649729 0
0.123333335 -0.0372649729 0
0.119999997 -0.0372649729 0
0.116666667 -0.0372649729 0
0.113333337 -0.0372649729 0
0.109999999 -0.0372649729 0
0.106666669 -0.0372649729 0
0.103333332 -0.0372649729 0
0.100000001 -0.0372649729 0
0.0966666639 -0.0372649729 0
0.0933333337 -0.0372649729 0
0.0900000036 -0.0372649729 0
0.086666666 -0.0372649729 0
0.0833333358 -0.0372649729 0
0.0799999982 -0.0372649729 0
0.0766666681 -0.0372649729 0
0.0733333305 -0.0372649729 0
0.0700000003 -0.0372649729 0
0.0666666701 -0.0372649729 0
0.0633333325 -0.0372649729 0
0.0599999987 -0.0372649729 0
0.0566666685 -0.0372649729 0
0.0533333346 -0.0372649729 0
0.0500000007 -0.0372649729 0
0.0466666669 -0.0372649729 0
0.043333333 -0.0372649729 0
0.0399999991 -0.0372649729 0
0.0366666652 -0.0372649729 0
0.0333333351 -0.0372649729 0
0.13166666 -0.0401517227 0
0.12833333 -0.0401517227 0
0.125 -0.0401517227 0
0.12166667 -0.0401517227 0
0.118333332 -0.0401517227 0
0.115000002 -0.0401517227 0
0.111666664 -0.0401517227 0
[...]
POINT_DATA 961
SCALARS Temp float 1
LOOKUP_TABLE default
437.14984807745054
389.5698097509459
348.8025247837514
315.62210752582894
289.6357115023086
270.0385535450362
255.80390937983316
245.84171842722523
239.1203600410862
234.74548642972582
231.99593441738227
230.32565870023254
229.34388184586993
228.7849575762353
228.47672648741596
228.3127309541534
228.23061885430155
228.1972089732322
228.1998548112402
228.24367506234086
228.35470696595792
228.58951035377063
229.0519115431272
229.91685958683811
231.45930271075346
234.0828991433575
238.33967987200083
244.9299231280172
254.6745352040052
268.46572615272464
287.4319169258877
389.5698240133525
343.24877933779305
304.91217651831516
274.2665970410995
250.66661821541106
233.15717257308575
220.63951301814478
212.0129841164285
206.2788970262339
202.59978528645524
200.3190841128083
198.95170085106037
198.15800444274757
197.71165287851056
197.46871551004458
197.34200156555175
197.28206123944025
197.26487548392853
197.2857696884809
197.35933658945234
197.52565588921829
197.8634950093779
198.51095911819417
199.69269817320418
201.75014165389774
205.16761290993514
210.5838091137827
218.77778831599042
230.62265553876935
247.01642717051953
268.465745891941
348.80247824157686
304.9121545285184
269.057591129135
240.7737321879938
219.24810001942802
203.4477725323778
192.2610280993728
184.61867595753196
179.57812730432443
176.3661514937433
174.38694213253808
173.20648442376194
172.52441402791735
172.14252575904354
171.93596971148202
171.8300878570756
171.78387055170919
171.7799061726324
171.82051213659685
171.93007635381196
172.16408303503144
172.6254718575716
173.4883132416586
175.0268424882718
177.64478912216742
181.89612387674725
188.4856878972104
198.2383533390985
212.02760393063724
230.6226462602318
254.67454587220982
315.62204870556167
274.2665646691871
240.77373214564406
214.557000169383
194.73424904262083
180.26039585202125
170.05456756039922
163.10334650676302
158.52806082307032
155.61610713466155
153.82265629410603
152.75291123899322
152.1345522723065
151.7883209154881
151.60163980299646
151.5077873696097
151.47140555453996
151.48030679827016
151.5434935394078
151.69561114152577
152.00839523118876
152.60953305746213
153.70822657381535
155.6243978123858
158.81506567680375
163.8878077549842
171.58952234877847
182.7594028628063
198.23836945355208
218.77780151175114
244.92991462503204
289.6356561456269
250.66658758331747
219.24808265132702
194.73432148760847
176.2360357901018
162.7409424357887
153.22430557553346
146.73669665830616
142.4600998508354
139.73283184758264
138.0492451034657
137.04254509893235
136.45925500026974
136.13221434826548
135.95644879564833
135.87025634888
135.84231456206263
135.8649745950657
135.9538500008788
136.15404377590676
136.55351185887653
137.30360833781782
138.64535242313661
140.93736134682197
144.6779207646873
150.51073409654478
159.20320306658326
171.58951530023228
188.48568300546285
210.5838076315395
238.33968557652676
270.0384971220821
233.15721136428866
203.44782356590932
180.26036333489395
162.74092958484314
149.93427809224943
140.88029425901237
134.69039731197716
130.5976360824527
127.97952574212768
126.35842903313034
125.38632658594912
124.82173962033006
124.50490090915116
124.33545417716861
124.2549741101474
124.23528131591053
124.27290568364724
124.38993334995857
124.64162324531243
125.13111730647526
126.03083452472806
127.60843029245366
130.2524927695941
134.48993636897438
140.98507530388864
150.5107307154056
163.8878091521035
181.8961307855322
205.16759129244295
234.0828937998454
255.80392000774418
220.63953787486815
192.26107678555346
170.05452920955895
153.22428986945297
140.88028995038357
132.1236484602785
126.11712940914835
122.13306209878849
119.57702513692408
117.99017678978012
117.03643431792699
116.48159774746071
116.1702770932567
116.00493385399363
115.92942428853866
115.91820822308615
115.97170305055764
116.11809569911624
116.4219450270525
116.99966860819589
118.04108363124439
119.83438021846706
122.78922439543882
127.45001272266494
134.489932270254
144.6779122886241
158.8150534809963
177.644788092051
201.7501397954871
231.4593112753984
245.84173458481308
212.01301215556873
184.61861739703497
163.10331190226327
146.73669682538213
134.6904096015756
126.11712629595227
120.21913513398891
116.29691421168766
113.77491231300279
112.20620068821128
111.26193556541793
110.7121583985213
110.40403157602013
110.24179327603338
110.1710149824464
110.16845537272677
110.2380662191603
110.41348791405667
110.7672621100651
111.42661543270222
112.59466720210521
114.57410485625076
117.78786606855789
122.78922201244258
130.25248927731428
140.93736354771883
155.6243992302733
175.02682759794345
199.69267872123345
229.91684935804793
239.12036830597813
206.2789313960729
179.57808274439762
158.52804295096223
142.4601026908594
130.59762503440604
122.13305908790656
116.2969231709182
112.40865352844014
109.9046825663397
108.34529695829572
107.40584341397393
106.85877057972525
106.55273694727495
106.39316665940002
106.32699869393856
106.33298611698078
106.4181573620681
106.62074431249727
107.01968989317415
107.75039449169532
109.02534959582661
111.15651884481956
114.57410714753047
119.83438120846205
127.60842985165294
138.6453510234382
153.70822222677967
173.48831686409218
198.5109664140847
229.05193052564618
234.74552535641695
202.59972087307366
176.3661276066407
155.61610299415784
139.73284461304436
127.9795246080308
119.57703146994268
113.77490996069207
109.90468072451438
107.40998408484818
105.85530543029172
104.91832171030988
104.37282915416046
104.06838691792565
103.9112647532072
103.84951586955816
103.86357214830706
103.96299764051273
104.18964860525583
104.627252093522
105.41693392695201
106.77722313722342
109.02534788418158
112.59466688573892
118.04108322602211
126.03083367939428
137.30360765865618
152.6095149994009
172.6254568497724
197.86347804753632
228.5895019868206
231.9959952073926
200.31903323078387
174.3869282078654
153.82266242862732
138.04923353615524
126.35843022488083
117.9901851141983
112.20620115895517
108.34529925127218
105.85530519996702
104.30302688651274
103.36741101051818
102.82300715155004
102.5199375222199
102.36510282869381
102.30745240288832
102.32876880590693
102.44058438813174
102.68743057415577
103.15635655224683
103.99218070078264
105.41693605249812
107.75039503960038
111.42661388519383
116.99966616737193
125.13111604686563
136.55350890281306
152.008393294727
172.16408841673442
197.52566437302772
228.3546937732935
230.32559765662668
198.9516673642997
173.20648177648235
152.7529238547918
137.04253511071335
125.38633130289394
117.03642909804215
111.26193663960554
107.40583933380583
104.91832162159444
103.36741272210776
102.43273744834092
101.88926733838879
101.58749567859518
101.43479777064472
101.38081864961215
101.4083705943315
101.53042055307769
101.79334286453036
102.28632544642672
103.1563582043141
104.62725325897969
107.01968910643951
110.76726557359135
116.42194969521717
124.64163076889038
136.1540385425705
151.69560491803435
171.93007776374986
197.35933863793406
228.24368904936586
229.34385198106892
198.1579972808213
172.52443097752703
152.1345375972129
136.4592570445989
124.82175315343692
116.48159656735928
110.71216303044059
106.85876873007666
104.37283061250754
102.82300618966332
101.88926675412014
101.34680998297652
101.04637837628655
100.89569529882972
100.84492442560347
100.87762016205336
101.00773268625551
101.28282046816672
101.79334145775535
102.68743013292627
104.18965025480547
106.6207413503244
110.41348682459248
116.11809392250909
124.38993079713985
135.95384821032854
151.5434919116431
171.82051904316347
197.2857468573052
228.1998587517521
228.7849332732432
197.7116507090451
172.14254889669337
151.78830796137692
136.1322185653488
124.50489210201921
116.17027781350012
110.40402781632562
106.55273572554225
104.06838909308294
102.51993638241694
101.58749569942557
101.04637822923691
100.74748632922031
100.59878751219678
100.55081861673212
100.58764541677523
100.7238583254181
101.00773246621235
101.53042094098451
102.4405842734313
103.96299867434435
106.41815708930933
110.23806907822701
115.97170783028838
124.27290200440638
135.8649700404088
151.48030159460995
171.7799076528033
197.26487925587946
228.1972080958351
228.476724607244
197.4687341860078
171.93595515931193
151.60164041735723
135.95646562464515
124.33545236058036
116.00494106337312
110.24179249953886
106.39316660208105
103.91126428878532
102.36510284163798
101.43479818973854
100.89569514083311
100.59878770245716
100.45221881010046
100.4067947525851
100.44693595172402
100.58764527033715
100.8776197933352
101.40837011992221
102.32876885090495
103.86357143356751
106.33298329535867
110.16845438512885
115.9182064322223
124.23528017856309
135.84231366921964
151.471405192321
171.78385397851406
197.2820573474714
228.23061039617943
228.31273134476433
197.34202380552762
171.83007516910203
151.5077910324198
135.8702435597722
124.25497406559303
115.92941789206881
110.17101545524108
106.32700016717695
103.84951545628445
102.30745264128407
101.38081763609546
100.84492449715552
100.55081834928612
100.4067947597741
100.36388667424708
100.40679483539796
100.55081845951568
100.84492486552556
101.38081808950149
102.30745213625825
103.8495169912419
106.32699868363588
110.17101828921525
115.92942152907648
124.25497087758166
135.8702533219921
151.50778279516658
171.8300923428678
197.341991579218
228.3127328278265
228.23064103115314
197.28203799968247
171.78387763697643
151.4714256723562
135.84231105106076
124.23529061265316
115.91820687092537
110.16845832645389
106.332983315151
103.8635733430677
102.32877025687787
101.40837013475776
100.87762072714506
100.58764536495022
100.44693602977206
100.40679489226541
100.45221893079521
100.59878737330187
100.89569530570536
101.43479749960183
102.36510179844497
103.91126434084006
106.3931640173502
110.24179207980193
116.00493338577166
124.33545384826255
135.95644928702637
151.60162055155072
171.93596677202686
197.46869870390506
228.47671856477777
228.19724068369888
197.26485802103858
171.77991752160764
151.48028772502164
135.86497372188182
124.27289625707245
115.971703348182
110.23807110418997
106.41815459819092
103.96299944131776
102.44058349857372
101.53042031340104
101.00773225496323
100.72385817009264
100.58764554856647
100.55081864957924
100.59878755754126
100.74748653026646
101.0463784720041
101.58749536597398
102.51993727002606
104.06838802518283
106.55273740591784
110.4040299429975
116.1702751020515
124.50489837393435
136.1322109605464
151.7883189047509
172.142517294466
197.71164435295563
228.7849588076715
228.1998218447921
197.28575939342556
171.82052976672261
151.54347621050454
135.95385304003963
124.3899246561188
116.11809500976604
110.41348364273595
106.62074224250743
104.18965114737719
102.68742927042253
101.79334247127039
101.28282023213545
101.00773252339057
100.87762013743409
100.84492441466342
100.89569515907057
101.04637854785119
101.34680974654484
101.88926648815296
102.82300683218774
104.37283001698384
106.85877013530127
110.71216036929563
116.48160146893474
124.82174650372428
136.45924919460597
152.1345555136762
172.52441336535756
198.1580046674764
229.343892549346
228.24366773314878
197.35934967375854
171.93005846847458
151.69560880965486
136.15403003632733
124.64162416564388
116.42195247884162
110.7672618168878
107.01969029358263
104.62725204556615
103.15635721227491
102.2863250873422
101.79334257888742
101.5304208496682
101.4083706197014
101.38081865355443
101.43479786809996
101.58749578977617
101.88926712243598
102.43273793753566
103.36741198909144
104.91832259177478
107.40584051234896
111.26193453329209
117.0364330606169
125.38632514397075
137.04254281116664
152.7528983520862
173.20647721246664
198.95169293307822
230.32565902424903
228.35470335742147
197.52567424403756
172.1640667986251
152.00839871958902
136.55350022421194
125.13111751634511
116.99966151760486
111.42661526743281
107.7503964543582
105.41693472885251
103.9921823742253
103.15635622116064
102.68743031868742
102.44058430991934
102.32876870897121
102.3074523908275
102.36510295623457
102.51993736622322
102.82300701345935
103.36741136304546
104.30302645914492
105.85530601057742
108.34529737107384
112.20620438260222
117.99018024613909
126.35842466505265
138.04924775147634
153.82265097470707
174.3869407187794
200.31908376263348
231.99593084016328
228.58950851812077
197.8634510416514
172.62546091078926
152.60950354527694
137.30359877234292
126.03083760355281
118.04107800923971
112.59466874391582
109.02534615483361
106.77722169806746
105.41693337858062
104.62725161709749
104.18964913724372
103.96299771822349
103.86357213834866
103.84951590962633
103.91126478320665
104.06838679108932
104.37282942531999
104.91832125667155
105.85530604867634
107.40998477108623
109.90467936713105
113.77491275497545
119.57702745004966
127.97953128281068
139.7328272910622
155.61610445433257
176.3661592410918
202.5997963809614
234.74550250820036
229.05195901278896
198.51095856945466
173.4883395993652
153.70822421338207
138.64536389132013
127.60843222497229
119.83439044763979
114.57411531822987
111.1565221691231
109.0253568990012
107.75039848064354
107.01969373265898
106.62074825572981
106.41816115932323
106.33299019691516
106.32700279398748
106.39317044683958
106.55274077235576
106.85877451581689
107.40584666969913
108.34530069627651
109.9046841633639
112.40865783729454
116.29692110596378
122.13305564660678
130.59763480595893
142.46009242837235
158.5280512075434
179.57812295860924
206.27886686905762
239.12034156708017
229.91684303407962
199.69270514983378
175.0268307309671
155.62440247521158
140.93738096894032
130.25249271014826
122.789233573053
117.78787157609027
114.5741100305604
112.59467309175889
111.42662108755083
110.76726919706351
110.41349427691883
110.23807232820832
110.16846145246717
110.1710209880843
110.2417992172641
110.40403766662449
110.71216397624342
111.26194168114158
112.20620643220813
113.77491644670951
116.29692048150486
120.219135962503
126.11713372300864
134.69039806043642
146.7366980859099
163.10333535866732
184.6186728050879
212.01297719229066
245.84171838348533
231.45929684612472
201.75015952146632
177.64478422548507
158.81506489884464
144.6779114692392
134.4899415739744
127.45002143958727
122.78922699570202
119.83438875606078
118.04108785418971
116.99967267985114
116.42194926311161
116.11809970582432
115.97170765535556
115.9182128478543
115.92942855661279
116.00493834226182
116.17028159342244
116.48160186429187
117.03643887825464
117.99018024235818
119.57703059319407
122.13306367692977
126.11713089265331
132.12365998326229
140.88028747190222
153.22430228338794
170.0545669249834
192.2610237815095
220.63951181960496
255.80392195903457
234.08290205667095
205.16757599913475
181.8961186604435
163.88781690388723
150.51072317682053
140.98507953102543
134.48993384684337
130.25249054632644
127.60842937840212
126.0308335326208
125.13111857566929
124.64162371963653
124.38993346054046
124.2729057348677
124.23528127354
124.25497417686408
124.3354543489038
124.50490089099887
124.82174017249791
125.38632689971853
126.35842879968459
127.97952739355091
130.59763468623242
134.69040134326661
140.8802853608451
149.93427963548916
162.74094890233062
180.26040760208767
203.44778798744724
233.15718424352943
270.03849771170303
238.3396826768879
210.58378137497903
188.48567712178414
171.58949633064583
159.20319771772418
150.51072897313014
144.6779085489507
140.93735716834496
138.6453431436326
137.30359896833153
136.55350272831402
136.15403431140746
135.95384148523283
135.86496613702764
135.84230565102982
135.87024784350982
135.95644021382162
136.13220553537857
136.4592466182276
137.0425362773411
138.04923778864762
139.7328222179071
142.46009097344364
146.73669524418716
153.22429389290377
162.740942152368
176.23605450387606
194.73426077345658
219.24803857678617
250.66655877770862
289.63565060754456
244.9299279212444
218.7778170072145
198.23840641441876
182.75942082394968
171.5895527071314
163.88782918992746
158.81508687625475
155.62442005771402
153.7082484330066
152.60955769508536
152.00841889786307
151.69563424140497
151.54351648047825
151.48032957658842
151.47142856942426
151.50781038853438
151.60166271748182
151.78834427694085
152.1345751068705
152.7529336902368
153.8226797008497
155.61612778490522
158.5280842704527
163.1033587138906
170.05458530000755
180.2604239691751
194.73429193149684
214.55696616583802
240.77369330615556
274.2665344142773
315.6220521150893
254.67455713219147
230.62267971322663
212.0276203583149
198.2383830202811
188.4857165029913
181.89614347588096
177.64481736581857
175.0268646770204
173.4883351257702
172.62549384934988
172.16410443736987
171.93009889502298
171.82053475754233
171.77992825824455
171.78389315650625
171.8301102511152
171.93599183045723
172.14254809551386
172.5244360060776
173.20650710197296
174.38696258860472
176.36617206857028
179.57815205797067
184.6186904077625
192.26104858536502
203.44780369847425
219.24805613892156
240.77369262508284
269.05755052624403
304.9121193527157
348.8024735296749
268.4657488747508
247.0164506135926
230.62265812289803
218.7778040474926
210.58381551807778
205.16761926801664
201.75014924367278
199.69270550771873
198.51096983818064
197.86350465158142
197.52566475438556
197.35934531036452
197.28577824599796
197.26488446974838
197.28207015533468
197.34201046203475
197.46872485767923
197.71166162765624
198.15801317207388
198.95171036686702
200.31909154415993
202.59979484395814
206.27889758558493
212.01298890873406
220.6395252904663
233.15719564398873
250.6665700205611
274.26653781789827
304.91211174841436
343.24871845451645
389.56972702033306
287.43193325961823
268.4657204151854
254.67454246565214
244.9299294134525
238.33967646899544
234.08290489600319
231.45930201834383
229.9168596267054
229.05191162601224
228.58950891421117
228.35470708355473
228.24367512948595
228.1998547666591
228.19720928597013
228.23061892603477
228.31273097910315
228.47672615444776
228.78495760226392
229.34388220984877
230.32565723038908
231.9959332001036
234.74548894776402
239.1203542211138
245.8417168927231
255.80391495612906
270.0384916658811
289.63565287229983
315.6220410664267
348.8024491868731
389.5697093505474
437.14944059115976
