# vtk DataFile Version 2.0
Unstructured Grid Example
ASCII
DATASET UNSTRUCTURED_GRID

POINTS 961 float
0.150000006 -0.00839745998 0
0.146666661 -0.00839745998 0
0.143333331 -0.00839745998 0
0.140000001 -0.00839745998 0
0.13666667 -0.00839745998 0
0.13333334 -0.00839745998 0
0.129999995 -0.00839745998 0
0.126666665 -0.00839745998 0
0.123333335 -0.00839745998 0
0.119999997 -0.00839745998 0
0.116666667 -0.00839745998 0
0.113333337 -0.00839745998 0
0.109999999 -0.00839745998 0
0.106666669 -0.00839745998 0
0.103333332 -0.00839745998 0
0.100000001 -0.00839745998 0
0.0966666639 -0.00839745998 0
0.0933333337 -0.00839745998 0
0.0900000036 -0.00839745998 0
0.086666666 -0.00839745998 0
0.0833333358 -0.00839745998 0
0.0799999982 -0.00839745998 0
0.0766666681 -0.00839745998 0
0.0733333305 -0.00839745998 0
0.0700000003 -0.00839745998 0
0.0666666701 -0.00839745998 0
0.0633333325 -0.00839745998 0
0.0599999987 -0.00839745998 0
0.0566666685 -0.00839745998 0
0.0533333346 -0.00839745998 0
0.0500000007 -0.00839745998 0
0.148333326 -0.0112842107 0
0.144999996 -0.0112842107 0
0.141666666 -0.0112842107 0
0.138333336 -0.0112842107 0
0.135000005 -0.0112842107 0
0.13166666 -0.0112842107 0
0.12833333 -0.0112842107 0
0.125 -0.0112842107 0
0.12166667 -0.0112842107 0
0.118333332 -0.0112842107 0
0.115000002 -0.0112842107 0
0.111666664 -0.0112842107 0
0.108333334 -0.0112842107 0
0.104999997 -0.0112842107 0
0.101666667 -0.0112842107 0
0.0983333364 -0.0112842107 0
0.0949999988 -0.0112842107 0
0.0916666687 -0.0112842107 0
0.088333331 -0.0112842107 0
0.0850000009 -0.0112842107 0
0.0816666633 -0.0112842107 0
0.0783333331 -0.0112842107 0
0.075000003 -0.0112842107 0
0.0716666654 -0.0112842107 0
0.0683333352 -0.0112842107 0
0.0649999976 -0.0112842107 0
0.0616666675 -0.0112842107 0
0.0583333336 -0.0112842107 0
0.0549999997 -0.0112842107 0
0.0516666658 -0.0112842107 0
0.0483333319 -0.0112842107 0
0.146666661 -0.0141709624 0
0.143333331 -0.0141709624 0
0.140000001 -0.0141709624 0
0.13666667 -0.0141709624 0
0.13333334 -0.0141709624 0
0.129999995 -0.0141709624 0
0.126666665 -0.0141709624 0
0.123333335 -0.0141709624 0
0.119999997 -0.0141709624 0
0.116666667 -0.0141709624 0
0.113333337 -0.0141709624 0
0.109999999 -0.0141709624 0
0.106666669 -0.0141709624 0
0.103333332 -0.0141709624 0
0.100000001 -0.0141709624 0
0.0966666639 -0.0141709624 0
0.0933333337 -0.0141709624 0
0.0900000036 -0.0141709624 0
0.086666666 -0.0141709624 0
0.0833333358 -0.0141709624 0
0.0799999982 -0.0141709624 0
0.0766666681 -0.0141709624 0
0.0733333305 -0.0141709624 0
0.0700000003 -0.0141709624 0
0.0666666701 -0.0141709624 0
0.0633333325 -0.0141709624 0
0.0599999987 -0.0141709624 0
0.0566666685 -0.0141709624 0
0.0533333346 -0.0141709624 0
0.0500000007 -0.0141709624 0
0.0466666669 -0.0141709624 0
0.144999996 -0.0170577131 0
0.141666666 -0.0170577131 0
0.138333336 -0.0170577131 0
0.135000005 -0.0170577131 0
0.13166666 -0.0170577131 0
0.12833333 -0.0170577131 0
0.125 -0.0170577131 0
0.12166667 -0.0170577131 0
0.118333332 -0.0170577131 0
0.115000002 -0.0170577131 0
0.111666664 -0.0170577131 0
0.108333334 -0.0170577131 0
0.104999997 -0.0170577131 0
0.101666667 -0.0170577131 0
0.0983333364 -0.0170577131 0
0.0949999988 -0.0170577131 0
0.0916666687 -0.0170577131 0
0.088333331 -0.0170577131 0
0.0850000009 -0.0170577131 0
0.0816666633 -0.0170577131 0
0.0783333331 -0.0170577131 0
0.075000003 -0.0170577131 0
0.0716666654 -0.0170577131 0
0.0683333352 -0.0170577131 0
0.0649999976 -0.0170577131 0
0.0616666675 -0.0170577131 0
0.0583333336 -0.0170577131 0
0.0549999997 -0.0170577131 0
0.0516666658 -0.0170577131 0
0.0483333319 -0.0170577131 0
0.0450000018 -0.0170577131 0
0.143333331 -0.0199444648 0
0.140000001 -0.0199444648 0
0.13666667 -0.0199444648 0
0.13333334 -0.0199444648 0
0.129999995 -0.0199444648 0
0.126666665 -0.0199444648 0
0.123333335 -0.0199444648 0
0.119999997 -0.0199444648 0
0.116666667 -0.0199444648 0
0.113333337 -0.0199444648 0
0.109999999 -0.0199444648 0
0.106666669 -0.0199444648 0
0.103333332 -0.0199444648 0
0.100000001 -0.0199444648 0
0.0966666639 -0.0199444648 0
0.0933333337 -0.0199444648 0
0.0900000036 -0.0199444648 0
0.086666666 -0.0199444648 0
0.0833333358 -0.0199444648 0
0.0799999982 -0.0199444648 0
0.0766666681 -0.0199444648 0
0.0733333305 -0.0199444648 0
0.0700000003 -0.0199444648 0
0.0666666701 -0.0199444648 0
0.0633333325 -0.0199444648 0
0.0599999987 -0.0199444648 0
0.0566666685 -0.0199444648 0
0.0533333346 -0.0199444648 0
0.0500000007 -0.0199444648 0
0.0466666669 -0.0199444648 0
0.043333333 -0.0199444648 0
0.141666666 -0.0228312165 0
0.138333336 -0.0228312165 0
0.135000005 -0.0228312165 0
0.13166666 -0.0228312165 0
0.12833333 -0.0228312165 0
0.125 -0.0228312165 0
0.12166667 -0.0228312165 0
0.118333332 -0.0228312165 0
0.115000002 -0.0228312165 0
0.111666664 -0.0228312165 0
0.108333334 -0.0228312165 0
0.104999997 -0.0228312165 0
0.101666667 -0.0228312165 0
0.0983333364 -0.0228312165 0
0.0949999988 -0.0228312165 0
0.0916666687 -0.0228312165 0
0.088333331 -0.0228312165 0
0.0850000009 -0.0228312165 0
0.0816666633 -0.0228312165 0
0.0783333331 -0.0228312165 0
0.075000003 -0.0228312165 0
0.0716666654 -0.0228312165 0
0.0683333352 -0.0228312165 0
0.0649999976 -0.0228312165 0
0.0616666675 -0.0228312165 0
0.0583333336 -0.0228312165 0
0.0549999997 -0.0228312165 0
0.0516666658 -0.0228312165 0
0.0483333319 -0.0228312165 0
0.0450000018 -0.0228312165 0
0.0416666679 -0.0228312165 0
0.140000001 -0.0257179681 0
0.13666667 -0.0257179681 0
0.13333334 -0.0257179681 0
0.129999995 -0.0257179681 0
0.126666665 -0.0257179681 0
0.123333335 -0.0257179681 0
0.119999997 -0.0257179681 0
0.116666667 -0.0257179681 0
0.113333337 -0.0257179681 0
0.109999999 -0.0257179681 0
0.106666669 -0.0257179681 0
0.103333332 -0.0257179681 0
0.100000001 -0.0257179681 0
0.0966666639 -0.0257179681 0
0.0933333337 -0.0257179681 0
0.0900000036 -0.0257179681 0
0.086666666 -0.0257179681 0
0.0833333358 -0.0257179681 0
0.0799999982 -0.0257179681 0
0.0766666681 -0.0257179681 0
0.0733333305 -0.0257179681 0
0.0700000003 -0.0257179681 0
0.0666666701 -0.0257179681 0
0.0633333325 -0.0257179681 0
0.0599999987 -0.0257179681 0
0.0566666685 -0.0257179681 0
0.0533333346 -0.0257179681 0
0.0500000007 -0.0257179681 0
0.0466666669 -0.0257179681 0
0.043333333 -0.0257179681 0
0.0399999991 -0.0257179681 0
0.138333336 -0.0286047198 0
0.135000005 -0.0286047198 0
0.13166666 -0.0286047198 0
0.12833333 -0.0286047198 0
0.125 -0.0286047198 0
0.12166667 -0.0286047198 0
0.118333332 -0.0286047198 0
0.115000002 -0.0286047198 0
0.111666664 -0.0286047198 0
0.108333334 -0.0286047198 0
0.104999997 -0.0286047198 0
0.101666667 -0.0286047198 0
0.0983333364 -0.0286047198 0
0.0949999988 -0.0286047198 0
0.0916666687 -0.0286047198 0
0.088333331 -0.0286047198 0
0.0850000009 -0.0286047198 0
0.0816666633 -0.0286047198 0
0.0783333331 -0.0286047198 0
0.075000003 -0.0286047198 0
0.0716666654 -0.0286047198 0
0.0683333352 -0.0286047198 0
0.0649999976 -0.0286047198 0
0.0616666675 -0.0286047198 0
0.0583333336 -0.0286047198 0
0.0549999997 -0.0286047198 0
0.0516666658 -0.0286047198 0
0.0483333319 -0.0286047198 0
0.0450000018 -0.0286047198 0
0.0416666679 -0.0286047198 0
0.038333334 -0.0286047198 0
0.13666667 -0.0314914696 0
0.13333334 -0.0314914696 0
0.129999995 -0.0314914696 0
0.126666665 -0.0314914696 0
0.123333335 -0.0314914696 0
0.119999997 -0.0314914696 0
0.116666667 -0.0314914696 0
0.113333337 -0.0314914696 0
0.109999999 -0.0314914696 0
0.106666669 -0.0314914696 0
0.103333332 -0.0314914696 0
0.100000001 -0.0314914696 0
0.0966666639 -0.0314914696 0
0.0933333337 -0.0314914696 0
0.0900000036 -0.0314914696 0
0.086666666 -0.0314914696 0
0.0833333358 -0.0314914696 0
0.0799999982 -0.0314914696 0
0.0766666681 -0.0314914696 0
0.0733333305 -0.0314914696 0
0.0700000003 -0.0314914696 0
0.0666666701 -0.0314914696 0
0.0633333325 -0.0314914696 0
0.0599999987 -0.0314914696 0
0.0566666685 -0.0314914696 0
0.0533333346 -0.0314914696 0
0.0500000007 -0.0314914696 0
0.0466666669 -0.0314914696 0
0.043333333 -0.0314914696 0
0.0399999991 -0.0314914696 0
0.0366666652 -0.0314914696 0
0.135000005 -0.0343782231 0
0.13166666 -0.0343782231 0
0.12833333 -0.0343782231 0
0.125 -0.0343782231 0
0.12166667 -0.0343782231 0
0.118333332 -0.0343782231 0
0.115000002 -0.0343782231 0
0.111666664 -0.0343782231 0
0.108333334 -0.0343782231 0
0.104999997 -0.0343782231 0
0.101666667 -0.0343782231 0
0.0983333364 -0.0343782231 0
0.0949999988 -0.0343782231 0
0.0916666687 -0.0343782231 0
0.088333331 -0.0343782231 0
0.0850000009 -0.0343782231 0
0.0816666633 -0.0343782231 0
0.0783333331 -0.0343782231 0
0.075000003 -0.0343782231 0
0.0716666654 -0.0343782231 0
0.0683333352 -0.0343782231 0
0.0649999976 -0.0343782231 0
0.0616666675 -0.0343782231 0
0.0583333336 -0.0343782231 0
0.0549999997 -0.0343782231 0
0.0516666658 -0.0343782231 0
0.0483333319 -0.0343782231 0
0.0450000018 -0.0343782231 0
0.0416666679 -0.0343782231 0
0.038333334 -0.0343782231 0
0.0350000001 -0.0343782231 0
0.13333334 -0.0372649729 0
0.129999995 -0.0372649729 0
0.126666665 -0.0372649729 0
0.123333335 -0.0372649729 0
0.119999997 -0.0372649729 0
0.116666667 -0.0372649729 0
0.113333337 -0.0372649729 0
0.109999999 -0.0372649729 0
0.106666669 -0.0372649729 0
0.103333332 -0.0372649729 0
0.100000001 -0.0372649729 0
0.0966666639 -0.0372649729 0
0.0933333337 -0.0372649729 0
0.0900000036 -0.0372649729 0
0.086666666 -0.0372649729 0
0.0833333358 -0.0372649729 0
0.0799999982 -0.0372649729 0
0.0766666681 -0.0372649729 0
0.0733333305 -0.0372649729 0
0.0700000003 -0.0372649729 0
0.0666666701 -0.0372649729 0
0.0633333325 -0.0372649729 0
0.0599999987 -0.0372649729 0
0.0566666685 -0.0372649729 0
0.0533333346 -0.0372649729 0
0.0500000007 -0.0372649729 0
0.0466666669 -0.0372649729 0
0.043333333 -0.0372649729 0
0.0399999991 -0.0372649729 0
0.0366666652 -0.0372649729 0
0.0333333351 -0.0372649729 0
0.13166666 -0.0401517227 0
0.12833333 -0.0401517227 0
0.125 -0.0401517227 0
0.12166667 -0.0401517227 0
0.118333332 -0.0401517227 0
0.115000002 -0.0401517227 0
0.111666664 -0.0401517227 0
[...]
POINT_DATA 961
SCALARS Temp float 1
LOOKUP_TABLE default
430.08116242395846
382.23932441407237
341.48535857323424
308.5862433191503
283.07919044467775
264.0723637156429
250.45519023659196
241.07127792176695
234.8469234991875
230.86957704953895
228.4186438602777
226.96042817821922
226.12172624453174
225.65486101067796
225.40322766051796
225.27235818464342
225.20823735435783
225.18275363020754
225.18549778381308
225.22124179450896
225.31312093463865
225.5122186200155
225.91463151210513
226.68653299174687
228.09565792091126
230.5441338520533
234.5930754975462
240.9664940327892
250.52451671159363
264.210054174338
283.21159239933576
382.23933883375605
335.7614761108516
297.5729592577744
267.31917118931966
244.2722699665127
227.3882055756321
215.49006621312782
207.4207418614999
202.15012916629382
198.8315657608514
196.81520165244865
195.63150943009137
194.95933468903107
194.58975055540913
194.3931251644326
194.29282078449972
194.24636288490646
194.23356989776676
194.25082992770075
194.31116241100707
194.45041143861602
194.74053360307983
195.31092995543528
196.37750413402426
198.2763033158561
201.4943650363174
206.68606909383186
214.66200142793627
226.34120377714217
242.67519196075307
264.2100738842665
341.48531227982676
297.57293758313676
261.9744148962412
234.15485334577272
213.21670484214715
198.04346803362134
187.454960802174
180.33612392546132
175.72193310054845
172.8361087830724
171.09278923086393
170.07443505355366
169.49860522983792
169.1832599305489
169.01643151856962
168.93270432956257
168.89690792373082
168.8944468797322
168.92768016477115
169.01830644365248
169.21636804875126
169.6168851720142
170.38463685070255
171.78566582352903
174.22062132453343
178.25047841265928
184.60150087496518
194.13575448354146
207.77585820080714
226.34119446668927
250.52452721931073
308.5861852644224
267.3191395907963
234.15485359912867
208.43646223059366
189.20260201175202
175.3343308001466
165.6928819228595
159.22792579509755
155.0445015455275
152.43018715357093
150.8510114689201
149.92809714609996
149.40580054198983
149.11962329623893
148.96859539442454
148.89417314156
148.86593807606263
148.87367572177877
148.92553184388595
149.05245215953298
149.31967107919198
149.84608575238698
150.8313466816411
152.58804076092022
155.57244285517444
160.4028536950532
167.8518828512462
178.79928220659832
194.13577041481165
214.6620145901065
240.96648553699842
283.0791364686189
244.2722405105595
213.2166883866616
189.20267226047227
171.2716720945966
158.3481892147811
149.3585789655714
143.32265933469455
139.40935906036776
136.9580940589919
135.47351761383499
134.60350478263274
134.10985670382757
133.8389199714315
133.69631318632966
133.6277027946604
133.60600461797483
133.6248368063708
133.6981598505936
133.8664759914821
134.21033746552231
134.87165234883338
136.0818428232876
138.19310622923948
141.7049952471686
147.27473821860727
155.69822838674793
167.85187589683719
184.60149606733188
206.68606753109773
234.59308126355083
264.0723091647585
227.38824320180362
198.0435175895237
175.33429883655072
158.34817665232183
146.07574342848935
137.51416348293733
131.74735729731907
127.99624124472504
125.63887538381546
124.20667050437456
123.36488297046603
122.88607076805563
122.62299237421449
122.48513739301168
122.42085167582778
122.40564159397981
122.43670268990734
122.53376443152844
122.74669864652006
123.17049408408114
123.96763506726133
125.39622563726097
127.8392178281949
131.8262960601391
138.03716384798062
147.2747349712523
160.40285506642257
178.25048534181468
201.49434357253543
230.54412826837913
250.45520029978377
215.4900903795384
187.45500850744014
165.69284430282022
149.35856377656043
137.51415941352073
129.22131196369534
123.61622317551681
119.95854560981199
117.6531523462382
116.24885522526516
115.42161443603806
114.95030420258949
114.69135384344814
114.55654477947266
114.49606464716052
114.48761455172664
114.53176147165304
114.65372325327394
114.91200194342244
115.41425068683786
116.33997887431875
117.96787241043913
120.70252541849784
125.0920970118165
131.8262921105567
141.704987032543
155.5724309965502
174.22062010471885
198.27630137842652
228.09566653893293
241.07129384290292
207.42076951231167
180.33606634354857
159.2278921262699
143.3226591928049
131.74736898636007
123.61622026650448
118.10440518016456
114.49848248170031
112.22080145749018
110.83086027682018
110.01090490584289
109.54336985617408
109.28675666395948
109.15425975707333
109.09745219389372
109.0959700977227
109.15347476616185
109.30011682752813
109.60182556047401
110.17657181616813
111.21686990904163
113.0159129007704
115.99191903242763
120.70252317116422
127.83921456235815
138.19310827568518
152.5880421175575
171.7856510686798
196.3774847536334
226.68652284112457
234.84693161610795
202.15016330987388
175.72188847292108
155.04448368611412
139.40936168863362
127.99623074479913
119.95854286303016
114.49849076472674
110.92020325959267
108.65678707510618
107.27401022041626
106.45764070492608
105.992067954115
105.73697412111927
105.60648725060102
105.55329481662818
105.55872826474655
105.6291573292728
105.79889421097695
106.13982193687917
106.77769754393596
107.91416765846388
109.85167804604016
113.01591504888404
117.96787324639419
125.39622511877084
136.0818414309513
150.83134238026915
170.38464049546184
195.31093712257612
225.91465045212297
230.86961533049407
198.83150145766558
172.8360852049985
152.43018324138532
136.95810674813205
125.63887428315311
117.65315836709202
112.22079936857055
108.65678543013239
106.40049162868276
105.02122136778674
104.2066371690159
103.74218947843212
103.48825677770401
103.35963385733406
103.30992534027422
103.32189846511777
103.40415923991605
103.59430157540172
103.96864467588242
104.65837428097632
105.87098868067933
107.91416607278457
111.21686958571145
116.33997851651777
123.96763430808929
134.8716517975403
149.8460679671853
169.6168702594966
194.74051668732102
225.51221020890787
228.4187041239092
196.81515097572466
171.09277571229944
150.85101741498417
135.47350647454587
124.20667172714484
116.2488632175736
110.83086068018547
107.27401231043541
105.02122116966996
103.64368419207376
102.83006395380369
102.36638832342797
102.11346669692597
101.98659540978423
101.94012194257503
101.95797123662149
102.05048285610866
102.25766370814496
102.65889632619042
103.38884332613195
104.65837616977755
106.77769805050373
110.17657037856259
115.41424841043474
123.17049281348532
134.21033451872984
149.31966918481663
169.21637337919907
194.4504199394837
225.3131077096609
226.96036732517453
195.63147607842512
170.07443251023008
149.92810966567103
134.603495206304
123.36488744496725
115.4216095132221
110.01090590626751
106.45763697730463
104.20663710472664
102.83006544080631
102.01710366953037
101.55409654315017
101.30213776539037
101.17690394977721
101.13332118155618
101.15619578324177
101.25712530765384
101.47776813039198
101.89946265705143
102.65889777952911
103.96864571217947
106.13982121791301
109.6018287274656
114.91200630501478
122.74670585268926
133.86647089530456
149.05244605353397
169.01830779553825
194.31116439790506
225.22125578086388
226.12169675701548
194.95932789603964
169.4986222873458
149.4057862995239
134.10985875329936
122.88608384592705
114.95030311672829
109.54337423201746
105.99206624019817
103.74219078137295
102.36638748541735
101.55409603977887
101.09182752315431
100.84086786781454
100.7171738956114
100.67610273856704
100.70309295132935
100.81059781198759
101.04132679268932
101.47776692264229
102.25766332602826
103.59430304132107
105.7988914936516
109.3001158183518
114.65372158094571
122.53376198232547
133.69815809516993
148.92553023455102
168.92768700121292
194.25080713203747
225.18550168173877
225.65483710253054
194.58974857637975
169.18328300090687
149.11961066846607
133.83892408349098
122.62298401017667
114.69135449414382
109.2867531671583
105.73697299816529
103.48825873263611
102.11346569573372
101.30213776916159
100.84086774216514
100.59106514105073
100.46888336635806
100.4299883541156
100.4602507319989
100.57267479613589
100.81059762506997
101.25712563776035
102.05048274540202
103.40416015732949
105.62915707948214
109.15347742828821
114.53176597501586
122.43669915251174
133.6248323756286
148.87367061156567
168.89444830478516
194.2335736684716
225.1827527827123
225.4032259861582
194.39314393453265
169.01641722813284
148.96859604250565
133.69632955908835
122.48513563024808
114.55655162033462
109.15425902416453
105.60648719997123
103.3596334402033
101.98659541389146
101.17690431048584
100.71717376233129
100.46888352268263
100.34832810893239
100.31139505862734
100.34425128386825
100.46025060961314
100.70309263867927
101.1561953728851
101.95797127764594
103.3218978279946
105.55872568368669
109.09596917457226
114.48761283898034
122.40564050256063
133.60600375070595
148.86593771752914
168.89689154178234
194.24635900494616
225.20822892883623
225.2723586253673
194.29284300984804
168.93269171320847
148.89417668642471
133.62769041681338
122.42085159573548
114.49605861240158
109.09745261223297
105.5532961560583
103.30992495508262
101.94012214439842
101.13332030538567
100.67610279480456
100.42998813146622
100.31139506408115
100.27639767513863
100.31139512615022
100.42998822242852
100.67610310929773
101.13332069679574
101.94012170347592
103.30992634271331
105.55329480080854
109.09745526455849
114.49606204911073
122.4208485749641
133.62769987950918
148.89416862530172
168.93270880729554
194.2928108714158
225.27236011421599
225.20825943035848
194.24633965395003
168.89691490906594
148.8659578229193
133.60600116062963
122.40565050137212
114.4876132314932
109.09597281093365
105.55872569555542
103.3218995251917
101.95797250852502
101.1561953798384
100.70309342435013
100.46025068632191
100.34425134751018
100.31139517294801
100.34832820818744
100.4688832492063
100.71717389934976
101.1769037106963
101.98659449416863
103.35963347438931
105.60648483802069
109.15425862434444
114.55654433858581
122.485137057334
133.69631364661788
148.96857652506367
169.01642859271982
194.39310842622356
225.40321967928944
225.18278532734817
194.23355241091102
168.89445806371148
148.87365700771426
133.62483589784154
122.43669363168522
114.53176170806216
109.15347930869501
105.62915478319022
103.40416083999644
102.05048206244794
101.25712509058418
100.81059744777923
100.5726746668583
100.46025084043204
100.429988382091
100.46888340361167
100.59106530922233
100.84086794727959
101.30213748294649
102.11346648100907
103.48825777184966
105.73697453818481
109.28675513274443
114.69135193898457
122.62298997140753
133.83891665340198
149.1196213570231
169.18325150134658
194.58974198173036
225.65486224153247
225.18546482648344
194.25081964603143
168.92769763775587
148.9255147549782
133.69816277255788
122.53375606059733
114.65372257201258
109.30011285423036
105.7988922942264
103.59430384195565
102.25766256360718
101.47776779638588
101.04132659321746
100.8105976759986
100.70309293093516
100.6761027287194
100.7171737823944
100.84086801159837
101.09182732303954
101.55409581310049
102.36638804631869
103.7421902506496
105.99206751835884
109.54337173270358
114.95030773217248
122.88607739649696
134.10985105101253
149.40580365342336
169.49860464049965
194.9593349097526
226.12173688943992
225.2212344485999
194.31117539143418
169.01828865996507
149.05244979266493
133.86646260421125
122.74669947150764
114.91200893165913
109.6018252033478
106.13982229773616
103.9686446224138
102.65889689702797
101.89946234971467
101.47776788706719
101.25712555491084
101.15619580958476
101.13332118577797
101.17690402958267
101.30213785695803
101.55409636029206
102.01710409215983
102.83006479126502
104.2066379712666
106.45763803347569
110.01090393219806
115.42161318373195
123.36488145833154
134.60350258443214
149.92808443203097
170.0744277873709
195.6315013214936
226.96042862208947
225.3131172149321
194.4504297270989
169.21635183509923
149.31967447874825
134.21032603601495
123.17049417648343
115.41424400663719
110.17657164753516
106.77769934815827
104.6583749767178
103.38884480174538
102.65889604513998
102.25766349171872
102.05048279056714
101.95797115205434
101.94012193497824
101.9865955201854
102.11346656542455
102.36638821009022
102.83006425391255
103.64368381425015
105.02122188641297
107.27401056457603
110.83086365027755
116.24885854709125
124.20666632998102
135.47352010220501
150.8510061196689
171.0927880422041
196.81520144265028
228.41864038666705
225.5122165905451
194.74048962487663
169.61687417752546
149.84605667141895
134.87164310119303
123.96763807519407
116.33997354447945
111.2168713128143
107.91416449314377
105.87098737595996
104.6583738020898
103.9686442589297
103.5943020277608
103.4041593231166
103.3218984613779
103.30992537249604
103.35963387970595
103.4882566712828
103.74218970751949
104.20663677468418
105.02122190993848
106.40049222491
108.65678417731988
112.22080191545182
117.65315452870205
125.63888066266378
136.9580899111741
152.43018474888828
172.836116671133
198.83157692085544
230.86959327838633
225.91467881841797
195.31092905834396
170.38466289809497
150.8313441504037
136.0818537723811
125.39622728322131
117.96788189366225
113.01592263067499
109.85168109352178
107.91417429539977
106.77770120893459
106.13982545539541
105.79889781439073
105.62916079727596
105.5587319866476
105.5532985688913
105.60649072281828
105.73697763999886
105.99207155373841
106.45764371383515
107.27401363917627
108.65678856035483
110.92020718553728
114.49848875490336
119.95853950059406
127.99623989156247
139.40935164649503
155.0444917066516
175.7219282423914
202.1500993181232
234.84690515283958
226.6865163843199
196.377510952102
171.7856539784677
152.58804508482424
138.19312509337377
127.83921771102507
120.7025340661972
115.99192419299601
113.01591772858664
111.21687540532501
110.17657708348
109.60183208910559
109.30012276682311
109.15348045702976
109.09597575178014
109.09745778115973
109.15426529758892
109.28676232861324
109.54337508854672
110.01091060424702
110.83086562256237
112.2208053728611
114.49848829915237
118.104405971204
123.61622725783683
131.74735788499285
143.32266040784356
159.22791509475311
180.33612092364285
207.420734984189
241.0712776096169
228.0956518968526
198.2763210026701
174.22061611962366
155.5724421073505
141.70498616781205
131.826301005105
125.0921053039974
120.70252790581479
117.96788037397513
116.3399829189998
115.4142545685662
114.91200595897922
114.65372704390751
114.53176580898715
114.48761893767723
114.49606868706627
114.55654904285026
114.69135809715391
114.95030812222278
115.42161874165333
116.24885856176988
117.65315746688783
119.95854720937916
123.61622472209393
129.22132291629882
137.51415725130488
149.35857603073734
165.69288146928588
187.45495660442776
215.49006483228933
250.4552022406068
230.54413647103834
201.49432823974075
178.25047324361248
160.40286273014263
147.27472759851028
138.03716792261596
131.82629370065948
127.83921575381112
125.39622481419813
123.9676341520208
123.1704952160759
122.74669915223534
122.53376456295975
122.43670274591484
122.40564155681463
122.4208517476184
122.48513755141158
122.62299238333709
122.88607128739493
123.36488324101477
124.2066703382591
125.63887690181986
127.99624003918345
131.74736115985192
137.51415530556943
146.07574524277365
158.3481957568305
175.33434241700976
198.0434832011868
227.3882168191756
264.0723100062397
234.59307851124527
206.68604135387824
184.60149031312582
167.8518572889709
155.69822315308866
147.27473321720524
141.70498345176526
138.19310199034004
136.0818339152805
134.8716433205045
134.2103286314716
133.8664668136752
133.6981515602133
133.62482861933523
133.60599596633446
133.62769455408792
133.69630484884354
133.83891142170597
134.10984853542217
134.60349625817673
135.47351040947638
136.95808480801102
139.40935060624153
143.32265776786272
149.35856798753832
158.3481891810978
171.27169057917664
189.2026135740917
213.21664574033608
244.272212684007
283.07913167791514
240.96649861421736
214.66202982453913
194.13580705333337
178.7992999007544
167.851912656154
160.40287484092212
155.57246374256738
152.58806264436978
150.83136816002158
149.84610979196336
149.31969435773107
149.05247485109038
148.92555435754338
148.87369807165933
148.8659606638259
148.89419572815848
148.96861790890725
149.1196462324299
149.40582294801217
149.92811927837352
150.85103443360612
152.43020766749032
155.04452458568835
159.2279384937414
165.69289977096838
175.33435852099137
189.2026439062396
208.43642944886815
234.15481552255775
267.3191095894235
308.58618880016473
250.5245383655162
226.34122783739124
207.7758745609029
194.13578386308814
184.6015291457797
178.25049791390575
174.2206490038919
171.78568789758532
170.38465858817972
169.61690697344318
169.21638924113458
169.01832872164212
168.92770258647596
168.8944687434211
168.89693032571302
168.93272650806404
169.01645343831
169.18328204577782
169.49862707130688
170.07445747408826
171.09280968348924
172.83612946173466
175.7219574865143
180.3361388506979
187.45498135959662
198.04349872555167
213.2166630362302
234.1548152127062
261.97437517488504
297.57290290781845
341.4853079714254
264.21007682311597
242.67521543546908
226.34120640847706
214.66201702254145
206.6860756090853
201.49437149049322
198.27631096091676
196.37751149683183
195.310940496687
194.74054328511662
194.45042030860375
194.31117111235005
194.25083845886718
194.23357886300246
194.24637177286314
194.29282967389582
194.39313448667178
194.58975925831905
194.95934346033906
195.6315188766181
196.81520927143762
198.831575257601
202.15013051541024
207.42074711589098
215.4900784758349
227.38822806610042
244.2722235974494
267.319113456097
297.572895466833
335.76141586978076
382.2392421273139
283.2116087585016
264.2100484688324
250.52452386168684
240.96650020093463
234.5930721856002
230.54413926895612
228.09565732311387
226.68653311671076
225.9146316373954
225.51221717066588
225.31312100246546
225.22124187456765
225.18549773723316
225.18275395612162
225.20823742441434
225.27235822230847
225.4032273020966
225.65486109578333
226.12172654934812
226.96042686539369
228.41864289747784
230.86957938905886
234.8469182886694
241.07127661640868
250.45519547598096
264.07230409550857
283.0791335488792
308.58617804059327
341.48528372794374
382.23922439914855
430.0807537236265
