# vtk DataFile Version 2.0
Unstructured Grid Example
ASCII
DATASET UNSTRUCTURED_GRID

POINTS 961 float
0.150000006 -0.00839745998 0
0.146666661 -0.00839745998 0
0.143333331 -0.00839745998 0
0.140000001 -0.00839745998 0
0.13666667 -0.00839745998 0
0.13333334 -0.00839745998 0
0.129999995 -0.00839745998 0
0.126666665 -0.00839745998 0
0.123333335 -0.00839745998 0
0.119999997 -0.00839745998 0
0.116666667 -0.00839745998 0
0.113333337 -0.00839745998 0
0.109999999 -0.00839745998 0
0.106666669 -0.00839745998 0
0.103333332 -0.00839745998 0
0.100000001 -0.00839745998 0
0.0966666639 -0.00839745998 0
0.0933333337 -0.00839745998 0
0.0900000036 -0.00839745998 0
0.086666666 -0.00839745998 0
0.0833333358 -0.00839745998 0
0.0799999982 -0.00839745998 0
0.0766666681 -0.00839745998 0
0.0733333305 -0.00839745998 0
0.0700000003 -0.00839745998 0
0.0666666701 -0.00839745998 0
0.0633333325 -0.00839745998 0
0.0599999987 -0.00839745998 0
0.0566666685 -0.00839745998 0
0.0533333346 -0.00839745998 0
0.0500000007 -0.00839745998 0
0.148333326 -0.0112842107 0
0.144999996 -0.0112842107 0
0.141666666 -0.0112842107 0
0.138333336 -0.0112842107 0
0.135000005 -0.0112842107 0
0.13166666 -0.0112842107 0
0.12833333 -0.0112842107 0
0.125 -0.0112842107 0
0.12166667 -0.0112842107 0
0.118333332 -0.0112842107 0
0.115000002 -0.0112842107 0
0.111666664 -0.0112842107 0
0.108333334 -0.0112842107 0
0.104999997 -0.0112842107 0
0.101666667 -0.0112842107 0
0.0983333364 -0.0112842107 0
0.0949999988 -0.0112842107 0
0.0916666687 -0.0112842107 0
0.088333331 -0.0112842107 0
0.0850000009 -0.0112842107 0
0.0816666633 -0.0112842107 0
0.0783333331 -0.0112842107 0
0.075000003 -0.0112842107 0
0.0716666654 -0.0112842107 0
0.0683333352 -0.0112842107 0
0.0649999976 -0.0112842107 0
0.0616666675 -0.0112842107 0
0.0583333336 -0.0112842107 0
0.0549999997 -0.0112842107 0
0.0516666658 -0.0112842107 0
0.0483333319 -0.0112842107 0
0.146666661 -0.0141709624 0
0.143333331 -0.0141709624 0
0.140000001 -0.0141709624 0
0.13666667 -0.0141709624 0
0.13333334 -0.0141709624 0
0.129999995 -0.0141709624 0
0.126666665 -0.0141709624 0
0.123333335 -0.0141709624 0
0.119999997 -0.0141709624 0
0.116666667 -0.0141709624 0
0.113333337 -0.0141709624 0
0.109999999 -0.0141709624 0
0.106666669 -0.0141709624 0
0.103333332 -0.0141709624 0
0.100000001 -0.0141709624 0
0.0966666639 -0.0141709624 0
0.0933333337 -0.0141709624 0
0.0900000036 -0.0141709624 0
0.086666666 -0.0141709624 0
0.0833333358 -0.0141709624 0
0.0799999982 -0.0141709624 0
0.0766666681 -0.0141709624 0
0.0733333305 -0.0141709624 0
0.0700000003 -0.0141709624 0
0.0666666701 -0.0141709624 0
0.0633333325 -0.0141709624 0
0.0599999987 -0.0141709624 0
0.0566666685 -0.0141709624 0
0.0533333346 -0.0141709624 0
0.0500000007 -0.0141709624 0
0.0466666669 -0.0141709624 0
0.144999996 -0.0170577131 0
0.141666666 -0.0170577131 0
0.138333336 -0.0170577131 0
0.135000005 -0.0170577131 0
0.13166666 -0.0170577131 0
0.12833333 -0.0170577131 0
0.125 -0.0170577131 0
0.12166667 -0.0170577131 0
0.118333332 -0.0170577131 0
0.115000002 -0.0170577131 0
0.111666664 -0.0170577131 0
0.108333334 -0.0170577131 0
0.104999997 -0.0170577131 0
0.101666667 -0.0170577131 0
0.0983333364 -0.0170577131 0
0.0949999988 -0.0170577131 0
0.0916666687 -0.0170577131 0
0.088333331 -0.0170577131 0
0.0850000009 -0.0170577131 0
0.0816666633 -0.0170577131 0
0.0783333331 -0.0170577131 0
0.075000003 -0.0170577131 0
0.0716666654 -0.0170577131 0
0.0683333352 -0.0170577131 0
0.0649999976 -0.0170577131 0
0.0616666675 -0.0170577131 0
0.0583333336 -0.0170577131 0
0.0549999997 -0.0170577131 0
0.0516666658 -0.0170577131 0
0.0483333319 -0.0170577131 0
0.0450000018 -0.0170577131 0
0.143333331 -0.0199444648 0
0.140000001 -0.0199444648 0
0.13666667 -0.0199444648 0
0.13333334 -0.0199444648 0
0.129999995 -0.0199444648 0
0.126666665 -0.0199444648 0
0.123333335 -0.0199444648 0
0.119999997 -0.0199444648 0
0.116666667 -0.0199444648 0
0.113333337 -0.0199444648 0
0.109999999 -0.0199444648 0
0.106666669 -0.0199444648 0
0.103333332 -0.0199444648 0
0.100000001 -0.0199444648 0
0.0966666639 -0.0199444648 0
0.0933333337 -0.0199444648 0
0.0900000036 -0.0199444648 0
0.086666666 -0.0199444648 0
0.0833333358 -0.0199444648 0
0.0799999982 -0.0199444648 0
0.0766666681 -0.0199444648 0
0.0733333305 -0.0199444648 0
0.0700000003 -0.0199444648 0
0.0666666701 -0.0199444648 0
0.0633333325 -0.0199444648 0
0.0599999987 -0.0199444648 0
0.0566666685 -0.0199444648 0
0.0533333346 -0.0199444648 0
0.0500000007 -0.0199444648 0
0.0466666669 -0.0199444648 0
0.043333333 -0.0199444648 0
0.141666666 -0.0228312165 0
0.138333336 -0.0228312165 0
0.135000005 -0.0228312165 0
0.13166666 -0.0228312165 0
0.12833333 -0.0228312165 0
0.125 -0.0228312165 0
0.12166667 -0.0228312165 0
0.118333332 -0.0228312165 0
0.115000002 -0.0228312165 0
0.111666664 -0.0228312165 0
0.108333334 -0.0228312165 0
0.104999997 -0.0228312165 0
0.101666667 -0.0228312165 0
0.0983333364 -0.0228312165 0
0.0949999988 -0.0228312165 0
0.0916666687 -0.0228312165 0
0.088333331 -0.0228312165 0
0.0850000009 -0.0228312165 0
0.0816666633 -0.0228312165 0
0.0783333331 -0.0228312165 0
0.075000003 -0.0228312165 0
0.0716666654 -0.0228312165 0
0.0683333352 -0.0228312165 0
0.0649999976 -0.0228312165 0
0.0616666675 -0.0228312165 0
0.0583333336 -0.0228312165 0
0.0549999997 -0.0228312165 0
0.0516666658 -0.0228312165 0
0.0483333319 -0.0228312165 0
0.0450000018 -0.0228312165 0
0.0416666679 -0.0228312165 0
0.140000001 -0.0257179681 0
0.13666667 -0.0257179681 0
0.13333334 -0.0257179681 0
0.129999995 -0.0257179681 0
0.126666665 -0.0257179681 0
0.123333335 -0.0257179681 0
0.119999997 -0.0257179681 0
0.116666667 -0.0257179681 0
0.113333337 -0.0257179681 0
0.109999999 -0.0257179681 0
0.106666669 -0.0257179681 0
0.103333332 -0.0257179681 0
0.100000001 -0.0257179681 0
0.0966666639 -0.0257179681 0
0.0933333337 -0.0257179681 0
0.0900000036 -0.0257179681 0
0.086666666 -0.0257179681 0
0.0833333358 -0.0257179681 0
0.0799999982 -0.0257179681 0
0.0766666681 -0.0257179681 0
0.0733333305 -0.0257179681 0
0.0700000003 -0.0257179681 0
0.0666666701 -0.0257179681 0
0.0633333325 -0.0257179681 0
0.0599999987 -0.0257179681 0
0.0566666685 -0.0257179681 0
0.0533333346 -0.0257179681 0
0.0500000007 -0.0257179681 0
0.0466666669 -0.0257179681 0
0.043333333 -0.0257179681 0
0.0399999991 -0.0257179681 0
0.138333336 -0.0286047198 0
0.135000005 -0.0286047198 0
0.13166666 -0.0286047198 0
0.12833333 -0.0286047198 0
0.125 -0.0286047198 0
0.12166667 -0.0286047198 0
0.118333332 -0.0286047198 0
0.115000002 -0.0286047198 0
0.111666664 -0.0286047198 0
0.108333334 -0.0286047198 0
0.104999997 -0.0286047198 0
0.101666667 -0.0286047198 0
0.0983333364 -0.0286047198 0
0.0949999988 -0.0286047198 0
0.0916666687 -0.0286047198 0
0.088333331 -0.0286047198 0
0.0850000009 -0.0286047198 0
0.0816666633 -0.0286047198 0
0.0783333331 -0.0286047198 0
0.075000003 -0.0286047198 0
0.0716666654 -0.0286047198 0
0.0683333352 -0.0286047198 0
0.0649999976 -0.0286047198 0
0.0616666675 -0.0286047198 0
0.0583333336 -0.0286047198 0
0.0549999997 -0.0286047198 0
0.0516666658 -0.0286047198 0
0.0483333319 -0.0286047198 0
0.0450000018 -0.0286047198 0
0.0416666679 -0.0286047198 0
0.038333334 -0.0286047198 0
0.13666667 -0.0314914696 0
0.13333334 -0.0314914696 0
0.129999995 -0.0314914696 0
0.126666665 -0.0314914696 0
0.123333335 -0.0314914696 0
0.119999997 -0.0314914696 0
0.116666667 -0.0314914696 0
0.113333337 -0.0314914696 0
0.109999999 -0.0314914696 0
0.106666669 -0.0314914696 0
0.103333332 -0.0314914696 0
0.100000001 -0.0314914696 0
0.0966666639 -0.0314914696 0
0.0933333337 -0.0314914696 0
0.0900000036 -0.0314914696 0
0.086666666 -0.0314914696 0
0.0833333358 -0.0314914696 0
0.0799999982 -0.0314914696 0
0.0766666681 -0.0314914696 0
0.0733333305 -0.0314914696 0
0.0700000003 -0.0314914696 0
0.0666666701 -0.0314914696 0
0.0633333325 -0.0314914696 0
0.0599999987 -0.0314914696 0
0.0566666685 -0.0314914696 0
0.0533333346 -0.0314914696 0
0.0500000007 -0.0314914696 0
0.0466666669 -0.0314914696 0
0.043333333 -0.0314914696 0
0.0399999991 -0.0314914696 0
0.0366666652 -0.0314914696 0
0.135000005 -0.0343782231 0
0.13166666 -0.0343782231 0
0.12833333 -0.0343782231 0
0.125 -0.0343782231 0
0.12166667 -0.0343782231 0
0.118333332 -0.0343782231 0
0.115000002 -0.0343782231 0
0.111666664 -0.0343782231 0
0.108333334 -0.0343782231 0
0.104999997 -0.0343782231 0
0.101666667 -0.0343782231 0
0.0983333364 -0.0343782231 0
0.0949999988 -0.0343782231 0
0.0916666687 -0.0343782231 0
0.088333331 -0.0343782231 0
0.0850000009 -0.0343782231 0
0.0816666633 -0.0343782231 0
0.0783333331 -0.0343782231 0
0.075000003 -0.0343782231 0
0.0716666654 -0.0343782231 0
0.0683333352 -0.0343782231 0
0.0649999976 -0.0343782231 0
0.0616666675 -0.0343782231 0
0.0583333336 -0.0343782231 0
0.0549999997 -0.0343782231 0
0.0516666658 -0.0343782231 0
0.0483333319 -0.0343782231 0
0.0450000018 -0.0343782231 0
0.0416666679 -0.0343782231 0
0.038333334 -0.0343782231 0
0.0350000001 -0.0343782231 0
0.13333334 -0.0372649729 0
0.129999995 -0.0372649729 0
0.126666665 -0.0372649729 0
0.123333335 -0.0372649729 0
0.119999997 -0.0372649729 0
0.116666667 -0.0372649729 0
0.113333337 -0.0372649729 0
0.109999999 -0.0372649729 0
0.106666669 -0.0372649729 0
0.103333332 -0.0372649729 0
0.100000001 -0.0372649729 0
0.0966666639 -0.0372649729 0
0.0933333337 -0.0372649729 0
0.0900000036 -0.0372649729 0
0.086666666 -0.0372649729 0
0.0833333358 -0.0372649729 0
0.0799999982 -0.0372649729 0
0.0766666681 -0.0372649729 0
0.0733333305 -0.0372649729 0
0.0700000003 -0.0372649729 0
0.0666666701 -0.0372649729 0
0.0633333325 -0.0372649729 0
0.0599999987 -0.0372649729 0
0.0566666685 -0.0372649729 0
0.0533333346 -0.0372649729 0
0.0500000007 -0.0372649729 0
0.0466666669 -0.0372649729 0
0.043333333 -0.0372649729 0
0.0399999991 -0.0372649729 0
0.0366666652 -0.0372649729 0
0.0333333351 -0.0372649729 0
0.13166666 -0.0401517227 0
0.12833333 -0.0401517227 0
0.125 -0.0401517227 0
0.12166667 -0.0401517227 0
0.118333332 -0.0401517227 0
0.115000002 -0.0401517227 0
0.111666664 -0.0401517227 0
[...]
POINT_DATA 961
SCALARS Temp float 1
LOOKUP_TABLE default
422.73414790414347
374.63193535072685
333.91580061748095
301.34108019698317
276.3643710070012
257.9959830753758
245.03365203434797
236.2511618442809
230.53327105537306
226.952394868729
224.7926139443016
223.53631321118468
222.8305337166484
222.44706449148168
222.24541196895146
222.14307031243615
222.09407531395615
222.07506963313892
222.07765695998947
222.10615070015993
222.18071280666518
222.34675867448212
222.69212225817557
223.37313352306583
224.64870813323935
226.91766951274454
230.74908844515684
236.89127785164902
246.24661770815703
259.8140837002626
278.8491588458845
374.6319499350374
328.00795949032465
290.0020605626241
260.1886397589507
237.7461797779227
221.53189085209982
210.28473927325192
202.7895829649618
197.98681577246168
195.0243634979525
193.26317532463938
192.25262435610009
191.69220055863133
191.39145570675606
191.23532567237743
191.1575565513547
191.12233136483843
191.11302303381345
191.12691093680806
191.17535979639928
191.28987033835512
191.53525495995774
192.03142283825352
192.98415636823918
194.72230789443924
197.73396485066755
202.6886561043958
210.43010975276232
221.92749646756513
238.19190210795915
259.8141033724307
333.91575462240417
290.0020392435648
254.69931610253374
227.39286861027037
207.0897959581796
192.5821092187208
182.61710261843842
176.03363337872105
171.84677361410553
169.28096030791136
167.76396486445208
166.89755113260526
166.41893011564693
166.16299719089685
166.03078869386312
165.96592524092713
165.93878735630466
165.93736930121253
165.96394901849513
166.0374607579796
166.20232530455834
166.5451367008755
167.2203365475003
168.4841414249709
170.73220243536858
174.5310485795771
180.62843060979066
189.92605514650617
203.40055160334956
221.92748712455113
246.2466280386222
301.3410230042147
260.18860901277606
227.3928691805558
202.21782699624384
183.61448464753596
170.38402682529528
161.32709113934897
155.35684199401496
151.5645443207334
149.24132639514852
147.867252931442
147.0817506819585
146.64728234439508
146.41472783460756
146.29480469229543
146.23696629867462
146.21550103580094
146.22199826930427
146.2636576871267
146.36763128696165
146.5923753018226
147.04730596759984
147.92123849901878
149.51758981355695
152.2899364982691
156.8660813695101
164.04488754033838
174.74965292084337
189.9260708743716
210.4301228739384
236.89126936562755
276.3643185404999
237.74615159150784
207.08978047894234
183.61455255589985
166.2862265742888
153.96144440154143
145.51557612185707
139.93807731695938
136.3869394697221
134.2055337322661
132.91154505940162
132.16960048261774
131.75805410070535
131.5373324495697
131.42374828305492
131.370207756736
131.3536908539731
131.36896007651274
131.4282486111126
131.56732576577014
131.85895434067768
132.4347290336181
133.5149870414506
135.44351911752392
138.71918213197665
144.01168850799647
152.14628106871345
164.04488069022156
180.62842589344208
202.68865445652688
230.74909427453875
257.99593053540815
221.53192723968905
192.58215719956684
170.383995454111
153.96143214463012
142.246886060242
134.19271377132
128.85533320731685
125.44513256075803
123.34312331629809
122.09219040790522
121.3727902014449
120.9727442411972
120.75792683719258
120.64782257419799
120.59747589892257
120.5859553637489
120.61103235464802
120.6900058491925
120.86717999994347
121.2288975710491
121.9266846369871
123.20743897724269
125.44637335598743
129.17397006336603
135.08439225848002
144.01168540277322
156.86608271325048
174.5310555244868
197.73394355557593
226.91766368182863
245.03366149560455
210.28476270310648
182.6171492730221
161.32705428589705
145.5155614660497
134.19270994399187
126.37826461714253
121.18134824571692
117.85009040187315
115.79075832361717
114.56208326328596
113.85394201046088
113.4595241021599
113.2477123085643
113.13980927139026
113.09231048799487
113.08607373511265
113.12174649734673
113.221494942823
113.43753381777884
113.86816355654784
114.68143284739125
116.14473687698471
118.65540329157331
122.76336315656242
129.17396627384286
138.71917419716195
152.28992499946466
170.73220102193204
194.72230587646453
224.64871680577218
236.25117749685168
202.78961017942854
176.03357680707097
155.35680928798115
139.9380768637722
128.85534427168943
121.181345543323
116.06320982514936
112.77442226948301
110.73717038098772
109.51959255403574
108.81691023950594
108.42523295536736
108.21508376290694
108.10886009235814
108.0641516039959
108.06341553516191
108.10996578712324
108.23036818807063
108.48366437228411
108.97790292479816
109.89373965844666
111.51298716522344
114.24687905091186
118.65540118493455
125.44637032336128
135.44352100656482
149.51759110624766
168.48412682242045
192.98413706550792
223.37312344828666
230.53327898459744
197.9868496487707
171.8467289410947
151.56452649489174
136.38694188080967
125.44512262641628
117.85008791890793
112.77442987191945
109.5076523013368
107.4814198426406
106.26920533701976
105.56912229889768
105.17882781411919
104.96975165464684
104.8650078436765
104.82307598470145
104.8278296432777
104.88493009184536
105.0246629156716
105.31154019318002
105.86095005402879
106.86236752552446
108.60676327979174
111.51298916546361
116.14473756337807
123.20743838600094
133.51498566154075
147.9212342476855
167.22034020838885
192.03142987466194
222.69214115255963
226.95243246397322
195.02429931175558
169.2809370494932
149.2413227061668
134.20554630878334
123.34312225704211
115.7907640191443
110.7371685499081
107.48141839003223
105.46051558944316
104.25084168560872
103.55201138372574
103.16249448917519
102.95424443353922
102.8508889513207
102.81164843604957
102.82160365008657
102.88835766980539
103.04512618154756
103.36048392315189
103.95491010647841
105.02349611161624
106.86236606899678
109.89373933074783
114.68143253617653
121.9266839618582
132.43472860528473
147.04728848730755
166.5451218979041
191.53523809644412
222.3467502140555
224.79267369366823
193.2631248724492
167.76395176456177
147.86725870103822
132.911534381535
122.09219165987628
114.56209089943954
109.51959289578751
106.26920722615296
104.25084151774956
103.04238242289735
102.3442107435231
101.95522627525871
101.74770358724699
101.64566083144291
101.60892298538923
101.62354633463187
101.69863697141987
101.86955621594993
102.20766718256296
102.83668461775375
103.95491176514783
105.86095051864595
108.97790159922116
113.86816144667789
121.22889629798945
131.85895141063952
146.5923734533845
166.20233057550902
191.28987884998085
222.18069955402373
223.53625259071882
192.2525911957228
166.8975487259062
147.08176310776133
132.16959134174715
121.37279443758143
113.8539374012715
108.81691116598172
105.56911892436597
103.55201134090083
102.34421201844404
101.64648783099096
101.25796974079567
101.0511449668095
100.9503303944741
100.91582346198537
100.93442196719417
101.0163175979113
101.19832989146995
101.5535863620369
102.20766844505032
103.36048483431667
105.31153954172504
108.48366724501436
113.43753786763666
120.86718687320221
131.56732081862683
146.36762530694918
166.0374620531243
191.17536171925562
222.106164683209
222.83050464714034
191.6921941663054
166.41894727601073
146.64726857388894
131.75805615487732
120.9727568305637
113.45952310760342
108.42523705833463
105.17882623989287
103.16249564039386
101.95522555455699
101.25796931311572
100.86997658401037
100.66387969280328
100.56421674500454
100.53163681300371
100.55346689737314
100.64063125550054
100.83086814359943
101.19832886984385
101.86955588945746
103.04512746999774
105.02466044518002
108.23036726066809
113.22149337761884
120.6900035066237
131.428246895903
146.26365609871826
165.96395577670643
191.1268881829612
222.0776608113272
222.44704100379988
191.3914539465415
166.1630201897604
146.4147155568823
131.53733644608252
120.75791892997532
113.24771289169526
108.21508053523975
104.96975063167876
102.9542461715401
101.74770271828204
101.05114495739603
100.66387958711447
100.45863251310303
100.36009698882424
100.3291727763785
100.35354535520716
100.44460513008099
100.64063109922445
101.01631787461677
101.6986368664037
102.8883584748849
104.88492986523323
108.10996824725387
113.1217507161269
120.61102896925065
131.36895577973667
146.22199326039248
165.937370667079
191.11302680266118
222.07506881879846
222.24541050936728
191.23534453235212
166.03077467638914
146.2948053629635
131.42376416410795
120.64782086698956
113.13981572511376
108.10885940229697
104.86500779773418
102.8508885807826
101.64566082825297
100.95033070055759
100.56421663432255
100.36009711491289
100.2627765672453
100.23333338182559
100.25969585995074
100.35354525469207
100.55346663651179
100.9344216173321
101.62354637181899
102.8216030885855
104.82782730371748
108.06341467890029
113.08607210572065
120.58595432129351
131.35369001403916
146.21550068188392
165.93877118587497
191.12232750215787
222.094066930592
222.1430707957264
191.15757874514887
165.96591270094194
146.23696971474143
131.37019581561552
120.59747578172345
113.0923048268518
108.06415196934555
104.82307719180784
102.81164808062408
101.60892315349822
100.91582271549939
100.53163685611264
100.32917259431929
100.23333338582549
100.20534803581562
100.23333343579381
100.32917266796173
100.53163712046408
100.91582304855079
101.6089227734233
102.81164932230448
104.8230759647592
108.06415443487518
113.09230805589675
120.59747293686951
131.37020496122506
146.23696184917102
165.96592971303804
191.15754671638402
222.14307230284987
222.09409726811558
191.12230814076543
165.93879422767534
146.21552037764954
131.35368745526898
120.58596386093168
113.08607245244026
108.06341800727203
104.82782730897034
102.82160458003973
101.62354743581622
100.93442161794316
100.55346728668712
100.35354531559186
100.25969591082776
100.2333334735898
100.26277664734582
100.3600968916917
100.56421674629415
100.95033018664178
101.64566002792515
102.85088860027497
104.86500566069616
108.10885902696928
113.1398088612499
120.64782223750679
131.42374871852334
146.29478623677966
166.03078578790658
191.23530901693414
222.24540393656153
222.07510130659492
191.11300552329075
165.93738030601438
146.22197994714975
131.36895913521616
120.61102369001283
113.12174667617727
108.10996998003829
104.88492776668453
102.88835907588667
101.69863627203627
101.01631740407073
100.6406309530173
100.44460502441028
100.35354544272398
100.32917279983674
100.36009701884932
100.45863265136566
100.66387975764655
101.0511447152567
101.74770340485674
102.95424531635938
104.9697520315659
108.21508233899448
113.24771050058301
120.7579245698691
131.53732920855208
146.41472597519677
166.1629888084065
191.39144709509512
222.44706571476104
222.07762402199836
191.1269006738433
165.96396632065014
146.26364086633737
131.42825141274318
120.68999782054917
113.22149427237598
108.23036452036749
105.02466115609766
103.04512818074839
101.8695552238636
101.19832961239011
100.83086797780027
100.64063114395668
100.55346688079014
100.53163680429996
100.56421665508437
100.66387981132503
100.86997641729934
101.25796912291423
101.95522603808288
103.16249517323301
105.17882739264537
108.42523472761503
113.4595274293147
120.97275059775681
131.75804861419383
146.6472853251525
166.41892958813028
191.69220076477296
222.83054429185842
222.1061433451234
191.17537267005528
166.0374431009066
146.3676288857002
131.5673127627315
120.86718073166134
113.43754033224965
108.48366396230512
105.311540515172
103.36048386641619
102.2076676694065
101.55358610310445
101.19832968745006
101.01631780040428
100.93442199368207
100.91582346631155
100.95033045857706
101.0511450408972
101.25796958836554
101.64648819123398
102.34421144993287
103.55201210691463
105.56911986120427
108.81690932866596
113.85394077429832
121.37278863499402
132.16959837557877
147.0817381586717
166.89754381804818
192.25261606070777
223.53631375169795
222.18070897749072
191.28988854936463
166.20230912308241
146.59237860760325
131.85894314346018
121.22889755222411
113.86815730125093
108.97790275468381
105.86095169888331
103.95491070136883
102.83668590295757
102.20766694810706
101.86955603562028
101.69863691734318
101.62354626178713
101.60892298128329
101.645660925981
101.7477034780285
101.95522618421927
102.3442109953394
103.04238209304965
104.25084214420107
106.26920561738675
109.51959560934228
114.56208643599614
122.0921864319039
132.91154738164988
147.8672475614258
167.76396387706046
193.26317523405785
224.79261055966018
222.34675643573917
191.53521098427728
166.54512566230903
147.0472773697948
132.43472011898
121.92668756363605
114.68142782357978
109.8937409246985
106.86236463988442
105.02349494090659
103.95490969396967
103.36048356288728
103.04512656021339
102.88835775627985
102.82160365141337
102.81164846138113
102.8508889673133
102.95424434548862
103.1624946798525
103.55201104567244
104.25084215513978
105.46051609974117
107.48141724180408
110.73717084707275
115.79076036629488
123.34312831977815
134.20552997398835
149.24132424486993
169.28096831043317
195.02437470301481
226.95241123750185
222.6921693886452
192.0314215894005
167.22036225804695
147.921235802194
133.51499745305492
123.20744034304762
116.14474560338196
111.51299614724165
108.6067660489463
106.86237349921305
105.86095339220849
105.31154338892702
105.02466617866351
104.88493323047058
104.82783300805343
104.82307938837793
104.8650109976613
104.96975486260169
105.17883107710924
105.56912505523476
106.26920843647765
107.48142121226593
109.50765584453437
112.77442792368743
117.85008464425978
125.44513113235342
136.38693207957
151.56453427392006
171.8467682492825
197.98678623596712
230.53325283063106
223.37311686121558
192.984163020328
168.48412950810336
149.51759379151542
135.44353718653454
125.44637318345967
118.65541138961323
114.24688385366197
111.51299163769156
109.89374475024765
108.97790779513348
108.48367034143652
108.2303736929039
108.1099710498922
108.06342075512913
108.06415676430088
108.10886522061135
108.21508899349227
108.42523782753312
108.81691551128893
109.51959749325124
110.73717406346958
112.77442762607542
116.06321057146963
121.18135208237851
128.85533362873787
139.9380780312025
155.35683174276855
176.03363051713163
202.78957613043013
236.25116125138007
224.64870195027174
194.72232539245786
170.73219692044012
152.28993578247832
138.71917329048617
129.17397473695274
122.763371002611
118.65540565898651
116.1447442539897
114.68143670151925
113.86816723685368
113.43753760212768
113.22149850794024
113.12175056051139
113.08607787201404
113.09231428933947
113.13981329796417
113.24771630752812
113.4595278117167
113.85394605319156
114.56208646787181
115.7907630989602
117.85009200757392
121.18134983823302
126.3782749704566
134.19270809148006
145.5155735337086
161.32709085616622
182.61709853565392
210.28473769814696
245.03366343130133
226.91767182625875
197.73392818914002
174.53104346308578
156.86609027902995
144.0116782117538
135.08439617044473
129.17396787253725
125.44637143511541
123.20743824408336
121.92668379786626
121.22889857144003
120.86718053382207
120.69000599911851
120.61103241490342
120.58595533193485
120.59747597457314
120.64782272113703
120.75792687057267
120.97274472964642
121.37279043110004
122.09219030205402
123.34312469997724
125.44513153392145
128.8553368839069
134.19270631322695
142.24688812920755
153.96145099605667
170.3840382808182
192.58212406964537
221.53190164485923
257.9959316459763
230.74909167897897
202.68862837228767
180.62842027853074
164.04486247826406
152.1462759608293
144.0116836390686
138.71917078354187
135.44351482985104
133.51497852306022
132.43472036320918
131.85894581917165
131.56731689157456
131.4282405674444
131.36895217797698
131.35368247969708
131.37019979858408
131.42374021041493
131.5373241801721
131.75804616764424
132.16959226819804
132.91153798572827
134.2055248661993
136.38693144010455
139.93807559546406
145.51556585097745
153.96144460574817
166.28624479234313
183.6144960170467
207.08973935728147
237.74612482379078
276.3643145647387
236.8912822067284
210.43013782374354
189.92610715177116
174.74967032012353
164.04491673872738
156.866102192244
152.28995703919
149.51761129597188
147.92125955790328
147.0473293768463
146.59239815443786
146.36765353170725
146.26367973573656
146.22202015332897
146.21552315836124
146.23698841653086
146.294826766042
146.41475030870785
146.64730428380952
147.0817724480664
147.86727541544067
149.24134672041464
151.56456690677288
155.3568551456118
161.32710905834327
170.3840540981881
183.6145254655429
202.21779551852404
227.39283193937754
260.1885793087323
301.3410266926831
246.24663905909188
221.92752039517896
203.40056788390746
189.9260841894699
180.62845850982148
174.53106796385563
170.73222951490203
168.4841633633707
167.22035811589063
166.54515828809048
166.20234626250127
166.03748275468078
165.96397121910823
165.93739092043958
165.93880953338123
165.965947182706
166.03081038940874
166.16301906329173
166.41895179011064
166.89757327343665
167.76398527598752
169.28098105290283
171.84679760425237
176.03364875226484
182.6171232208408
192.58213938818946
207.08975636187316
227.39283202621914
254.699277365688
290.0020051548133
333.915750790288
259.814106261428
238.19192560940033
221.92749914818924
210.43012519481533
202.6886627337026
197.73397140290538
194.7223155912393
192.98416375419617
192.03143320228654
191.53526468003636
191.28987920892865
191.175368474079
191.1269194374541
191.1130319754508
191.1223402228928
191.15756542869406
191.2353349685055
191.391464360492
191.6922093611595
192.25263373081236
193.263183112633
195.0243729221639
197.9868178995024
202.78958867653344
210.28475151281367
221.53191272299836
237.74613537800124
260.1885836731758
290.00199789590687
328.0079000245166
374.63185364494586
278.8491752269538
259.81407802980044
246.24662473506098
236.8912838920113
230.74908522851342
226.91767458139876
224.64870763278896
223.3731337357242
222.69212242657832
222.3467572115632
222.18071282916424
222.10615079381813
222.07765691246166
222.07506997393327
222.09407538449057
222.1430703623572
222.24541158603614
222.44706463078
222.8305339646289
223.53631204160826
224.79261322255178
226.95239702742572
230.53326644937513
236.2511607656936
245.0336569140669
257.9959258775528
276.36431600695244
301.3410162527665
333.9157266691163
374.6318358628728
422.73373815723437
