# vtk DataFile Version 2.0
Unstructured Grid Example
ASCII
DATASET UNSTRUCTURED_GRID

POINTS 961 float
0.150000006 -0.00839745998 0
0.146666661 -0.00839745998 0
0.143333331 -0.00839745998 0
0.140000001 -0.00839745998 0
0.13666667 -0.00839745998 0
0.13333334 -0.00839745998 0
0.129999995 -0.00839745998 0
0.126666665 -0.00839745998 0
0.123333335 -0.00839745998 0
0.119999997 -0.00839745998 0
0.116666667 -0.00839745998 0
0.113333337 -0.00839745998 0
0.109999999 -0.00839745998 0
0.106666669 -0.00839745998 0
0.103333332 -0.00839745998 0
0.100000001 -0.00839745998 0
0.0966666639 -0.00839745998 0
0.0933333337 -0.00839745998 0
0.0900000036 -0.00839745998 0
0.086666666 -0.00839745998 0
0.0833333358 -0.00839745998 0
0.0799999982 -0.00839745998 0
0.0766666681 -0.00839745998 0
0.0733333305 -0.00839745998 0
0.0700000003 -0.00839745998 0
0.0666666701 -0.00839745998 0
0.0633333325 -0.00839745998 0
0.0599999987 -0.00839745998 0
0.0566666685 -0.00839745998 0
0.0533333346 -0.00839745998 0
0.0500000007 -0.00839745998 0
0.148333326 -0.0112842107 0
0.144999996 -0.0112842107 0
0.141666666 -0.0112842107 0
0.138333336 -0.0112842107 0
0.135000005 -0.0112842107 0
0.13166666 -0.0112842107 0
0.12833333 -0.0112842107 0
0.125 -0.0112842107 0
0.12166667 -0.0112842107 0
0.118333332 -0.0112842107 0
0.115000002 -0.0112842107 0
0.111666664 -0.0112842107 0
0.108333334 -0.0112842107 0
0.104999997 -0.0112842107 0
0.101666667 -0.0112842107 0
0.0983333364 -0.0112842107 0
0.0949999988 -0.0112842107 0
0.0916666687 -0.0112842107 0
0.088333331 -0.0112842107 0
0.0850000009 -0.0112842107 0
0.0816666633 -0.0112842107 0
0.0783333331 -0.0112842107 0
0.075000003 -0.0112842107 0
0.0716666654 -0.0112842107 0
0.0683333352 -0.0112842107 0
0.0649999976 -0.0112842107 0
0.0616666675 -0.0112842107 0
0.0583333336 -0.0112842107 0
0.0549999997 -0.0112842107 0
0.0516666658 -0.0112842107 0
0.0483333319 -0.0112842107 0
0.146666661 -0.0141709624 0
0.143333331 -0.0141709624 0
0.140000001 -0.0141709624 0
0.13666667 -0.0141709624 0
0.13333334 -0.0141709624 0
0.129999995 -0.0141709624 0
0.126666665 -0.0141709624 0
0.123333335 -0.0141709624 0
0.119999997 -0.0141709624 0
0.116666667 -0.0141709624 0
0.113333337 -0.0141709624 0
0.109999999 -0.0141709624 0
0.106666669 -0.0141709624 0
0.103333332 -0.0141709624 0
0.100000001 -0.0141709624 0
0.0966666639 -0.0141709624 0
0.0933333337 -0.0141709624 0
0.0900000036 -0.0141709624 0
0.086666666 -0.0141709624 0
0.0833333358 -0.0141709624 0
0.0799999982 -0.0141709624 0
0.0766666681 -0.0141709624 0
0.0733333305 -0.0141709624 0
0.0700000003 -0.0141709624 0
0.0666666701 -0.0141709624 0
0.0633333325 -0.0141709624 0
0.0599999987 -0.0141709624 0
0.0566666685 -0.0141709624 0
0.0533333346 -0.0141709624 0
0.0500000007 -0.0141709624 0
0.0466666669 -0.0141709624 0
0.144999996 -0.0170577131 0
0.141666666 -0.0170577131 0
0.138333336 -0.0170577131 0
0.135000005 -0.0170577131 0
0.13166666 -0.0170577131 0
0.12833333 -0.0170577131 0
0.125 -0.0170577131 0
0.12166667 -0.0170577131 0
0.118333332 -0.0170577131 0
0.115000002 -0.0170577131 0
0.111666664 -0.0170577131 0
0.108333334 -0.0170577131 0
0.104999997 -0.0170577131 0
0.101666667 -0.0170577131 0
0.0983333364 -0.0170577131 0
0.0949999988 -0.0170577131 0
0.0916666687 -0.0170577131 0
0.088333331 -0.0170577131 0
0.0850000009 -0.0170577131 0
0.0816666633 -0.0170577131 0
0.0783333331 -0.0170577131 0
0.075000003 -0.0170577131 0
0.0716666654 -0.0170577131 0
0.0683333352 -0.0170577131 0
0.0649999976 -0.0170577131 0
0.0616666675 -0.0170577131 0
0.0583333336 -0.0170577131 0
0.0549999997 -0.0170577131 0
0.0516666658 -0.0170577131 0
0.0483333319 -0.0170577131 0
0.0450000018 -0.0170577131 0
0.143333331 -0.0199444648 0
0.140000001 -0.0199444648 0
0.13666667 -0.0199444648 0
0.13333334 -0.0199444648 0
0.129999995 -0.0199444648 0
0.126666665 -0.0199444648 0
0.123333335 -0.0199444648 0
0.119999997 -0.0199444648 0
0.116666667 -0.0199444648 0
0.113333337 -0.0199444648 0
0.109999999 -0.0199444648 0
0.106666669 -0.0199444648 0
0.103333332 -0.0199444648 0
0.100000001 -0.0199444648 0
0.0966666639 -0.0199444648 0
0.0933333337 -0.0199444648 0
0.0900000036 -0.0199444648 0
0.086666666 -0.0199444648 0
0.0833333358 -0.0199444648 0
0.0799999982 -0.0199444648 0
0.0766666681 -0.0199444648 0
0.0733333305 -0.0199444648 0
0.0700000003 -0.0199444648 0
0.0666666701 -0.0199444648 0
0.0633333325 -0.0199444648 0
0.0599999987 -0.0199444648 0
0.0566666685 -0.0199444648 0
0.0533333346 -0.0199444648 0
0.0500000007 -0.0199444648 0
0.0466666669 -0.0199444648 0
0.043333333 -0.0199444648 0
0.141666666 -0.0228312165 0
0.138333336 -0.0228312165 0
0.135000005 -0.0228312165 0
0.13166666 -0.0228312165 0
0.12833333 -0.0228312165 0
0.125 -0.0228312165 0
0.12166667 -0.0228312165 0
0.118333332 -0.0228312165 0
0.115000002 -0.0228312165 0
0.111666664 -0.0228312165 0
0.108333334 -0.0228312165 0
0.104999997 -0.0228312165 0
0.101666667 -0.0228312165 0
0.0983333364 -0.0228312165 0
0.0949999988 -0.0228312165 0
0.0916666687 -0.0228312165 0
0.088333331 -0.0228312165 0
0.0850000009 -0.0228312165 0
0.0816666633 -0.0228312165 0
0.0783333331 -0.0228312165 0
0.075000003 -0.0228312165 0
0.0716666654 -0.0228312165 0
0.0683333352 -0.0228312165 0
0.0649999976 -0.0228312165 0
0.0616666675 -0.0228312165 0
0.0583333336 -0.0228312165 0
0.0549999997 -0.0228312165 0
0.0516666658 -0.0228312165 0
0.0483333319 -0.0228312165 0
0.0450000018 -0.0228312165 0
0.0416666679 -0.0228312165 0
0.140000001 -0.0257179681 0
0.13666667 -0.0257179681 0
0.13333334 -0.0257179681 0
0.129999995 -0.0257179681 0
0.126666665 -0.0257179681 0
0.123333335 -0.0257179681 0
0.119999997 -0.0257179681 0
0.116666667 -0.0257179681 0
0.113333337 -0.0257179681 0
0.109999999 -0.0257179681 0
0.106666669 -0.0257179681 0
0.103333332 -0.0257179681 0
0.100000001 -0.0257179681 0
0.0966666639 -0.0257179681 0
0.0933333337 -0.0257179681 0
0.0900000036 -0.0257179681 0
0.086666666 -0.0257179681 0
0.0833333358 -0.0257179681 0
0.0799999982 -0.0257179681 0
0.0766666681 -0.0257179681 0
0.0733333305 -0.0257179681 0
0.0700000003 -0.0257179681 0
0.0666666701 -0.0257179681 0
0.0633333325 -0.0257179681 0
0.0599999987 -0.0257179681 0
0.0566666685 -0.0257179681 0
0.0533333346 -0.0257179681 0
0.0500000007 -0.0257179681 0
0.0466666669 -0.0257179681 0
0.043333333 -0.0257179681 0
0.0399999991 -0.0257179681 0
0.138333336 -0.0286047198 0
0.135000005 -0.0286047198 0
0.13166666 -0.0286047198 0
0.12833333 -0.0286047198 0
0.125 -0.0286047198 0
0.12166667 -0.0286047198 0
0.118333332 -0.0286047198 0
0.115000002 -0.0286047198 0
0.111666664 -0.0286047198 0
0.108333334 -0.0286047198 0
0.104999997 -0.0286047198 0
0.101666667 -0.0286047198 0
0.0983333364 -0.0286047198 0
0.0949999988 -0.0286047198 0
0.0916666687 -0.0286047198 0
0.088333331 -0.0286047198 0
0.0850000009 -0.0286047198 0
0.0816666633 -0.0286047198 0
0.0783333331 -0.0286047198 0
0.075000003 -0.0286047198 0
0.0716666654 -0.0286047198 0
0.0683333352 -0.0286047198 0
0.0649999976 -0.0286047198 0
0.0616666675 -0.0286047198 0
0.0583333336 -0.0286047198 0
0.0549999997 -0.0286047198 0
0.0516666658 -0.0286047198 0
0.0483333319 -0.0286047198 0
0.0450000018 -0.0286047198 0
0.0416666679 -0.0286047198 0
0.038333334 -0.0286047198 0
0.13666667 -0.0314914696 0
0.13333334 -0.0314914696 0
0.129999995 -0.0314914696 0
0.126666665 -0.0314914696 0
0.123333335 -0.0314914696 0
0.119999997 -0.0314914696 0
0.116666667 -0.0314914696 0
0.113333337 -0.0314914696 0
0.109999999 -0.0314914696 0
0.106666669 -0.0314914696 0
0.103333332 -0.0314914696 0
0.100000001 -0.0314914696 0
0.0966666639 -0.0314914696 0
0.0933333337 -0.0314914696 0
0.0900000036 -0.0314914696 0
0.086666666 -0.0314914696 0
0.0833333358 -0.0314914696 0
0.0799999982 -0.0314914696 0
0.0766666681 -0.0314914696 0
0.0733333305 -0.0314914696 0
0.0700000003 -0.0314914696 0
0.0666666701 -0.0314914696 0
0.0633333325 -0.0314914696 0
0.0599999987 -0.0314914696 0
0.0566666685 -0.0314914696 0
0.0533333346 -0.0314914696 0
0.0500000007 -0.0314914696 0
0.0466666669 -0.0314914696 0
0.043333333 -0.0314914696 0
0.0399999991 -0.0314914696 0
0.0366666652 -0.0314914696 0
0.135000005 -0.0343782231 0
0.13166666 -0.0343782231 0
0.12833333 -0.0343782231 0
0.125 -0.0343782231 0
0.12166667 -0.0343782231 0
0.118333332 -0.0343782231 0
0.115000002 -0.0343782231 0
0.111666664 -0.0343782231 0
0.108333334 -0.0343782231 0
0.104999997 -0.0343782231 0
0.101666667 -0.0343782231 0
0.0983333364 -0.0343782231 0
0.0949999988 -0.0343782231 0
0.0916666687 -0.0343782231 0
0.088333331 -0.0343782231 0
0.0850000009 -0.0343782231 0
0.0816666633 -0.0343782231 0
0.0783333331 -0.0343782231 0
0.075000003 -0.0343782231 0
0.0716666654 -0.0343782231 0
0.0683333352 -0.0343782231 0
0.0649999976 -0.0343782231 0
0.0616666675 -0.0343782231 0
0.0583333336 -0.0343782231 0
0.0549999997 -0.0343782231 0
0.0516666658 -0.0343782231 0
0.0483333319 -0.0343782231 0
0.0450000018 -0.0343782231 0
0.0416666679 -0.0343782231 0
0.038333334 -0.0343782231 0
0.0350000001 -0.0343782231 0
0.13333334 -0.0372649729 0
0.129999995 -0.0372649729 0
0.126666665 -0.0372649729 0
0.123333335 -0.0372649729 0
0.119999997 -0.0372649729 0
0.116666667 -0.0372649729 0
0.113333337 -0.0372649729 0
0.109999999 -0.0372649729 0
0.106666669 -0.0372649729 0
0.103333332 -0.0372649729 0
0.100000001 -0.0372649729 0
0.0966666639 -0.0372649729 0
0.0933333337 -0.0372649729 0
0.0900000036 -0.0372649729 0
0.086666666 -0.0372649729 0
0.0833333358 -0.0372649729 0
0.0799999982 -0.0372649729 0
0.0766666681 -0.0372649729 0
0.0733333305 -0.0372649729 0
0.0700000003 -0.0372649729 0
0.0666666701 -0.0372649729 0
0.0633333325 -0.0372649729 0
0.0599999987 -0.0372649729 0
0.0566666685 -0.0372649729 0
0.0533333346 -0.0372649729 0
0.0500000007 -0.0372649729 0
0.0466666669 -0.0372649729 0
0.043333333 -0.0372649729 0
0.0399999991 -0.0372649729 0
0.0366666652 -0.0372649729 0
0.0333333351 -0.0372649729 0
0.13166666 -0.0401517227 0
0.12833333 -0.0401517227 0
0.125 -0.0401517227 0
0.12166667 -0.0401517227 0
0.118333332 -0.0401517227 0
0.115000002 -0.0401517227 0
0.111666664 -0.0401517227 0
[...]
POINT_DATA 961
SCALARS Temp float 1
LOOKUP_TABLE default
415.0833163474639
366.7235496805016
326.0743621636147
293.8736791789085
269.4846913095294
251.8073453713431
239.539111128631
231.380723480007
226.17682865581756
222.98897027584394
221.11075785329
220.04475259117876
219.46094865037648
219.15194607856026
218.99371038782655
218.9154880724629
218.87895689844026
218.86513530093416
218.86740295793456
218.88953268436933
218.94870877603304
219.08457785006172
219.37625518251835
219.9691545080649
221.1116037689828
223.19700881524417
226.80086120756638
232.69612224522677
241.83070556239284
255.26584422978263
274.3321994292496
366.72356443751806
319.9667992599073
282.18375238496293
252.86596553448197
231.0849736081568
215.5881950363905
205.02425606520347
198.11899533019496
193.78619484995156
191.17306523127377
189.65602153970937
188.8068827445716
188.34789025425195
188.10794890226873
187.9866267708064
187.92772517435696
187.90166972080806
187.89506453895126
187.90591606657264
187.9439016095593
188.03615355098674
188.24010019221575
188.6654217007889
189.5063333718957
191.0824263161331
193.88076744192648
198.58512308415646
206.07392106920148
217.37115608564605
233.55458133136804
255.2658638542076
326.0743165246508
282.1837314679209
247.2223670745042
220.48380798262892
200.8679031391247
187.06643562139672
177.75017210603596
171.71236044141105
167.95159848965238
165.697553534099
164.3957451021141
163.67017874990404
163.27934755111943
163.0756672119307
162.97311854315006
162.92401856990014
162.9039342766598
162.9031993711874
162.92391063015822
162.98222642074745
163.1168591113157
163.40555674413415
163.99139139508566
165.1189803295138
167.17672780165145
170.73482427610557
176.5622474333239
185.6028805795471
198.8929042686989
217.37114670940764
241.8307156964043
293.8736229582371
252.86593572977577
220.48380889317286
195.90191272242956
177.97407893541057
165.41509350579977
156.9624551108433
151.4938361615292
148.08997519747982
146.04951114240671
144.8700482217182
144.2117736423261
143.85659251574867
143.67122015379286
143.5779863266266
143.534046922656
143.5181022514566
143.52336408338985
143.5560310482603
143.63944282705896
143.82509824849353
144.21231542541454
144.97776404158532
146.41365369655162
148.9685177657758
153.2779800245215
160.1674236887553
170.6068654661672
185.6028960808332
206.07393414069927
232.69611377202344
269.4846404964057
231.0849467938346
200.86788870499055
177.9741443488127
161.28646113679088
149.58856765840835
141.70285108212113
136.58923937217398
133.39748020154653
131.4782456740566
130.36526981764933
129.7420905322186
129.40481977093427
129.2284018500028
129.13980898934938
129.09895706011318
129.08666245781234
129.0987055177716
129.14556220695403
129.2582213318236
129.50136943815576
129.9954779357061
130.94824638738496
132.69281705752442
135.72495230615834
140.72533551212257
148.54917125350647
160.16741695452203
176.5622428162958
198.58512134619153
226.8008671022441
251.8072949928688
215.58823010809078
187.06648192295978
165.4150627705298
149.58855572589826
138.45670766895492
130.92489600083908
126.02231803188322
122.95091089490201
121.09749398099403
120.01914351984513
119.41354110993275
119.08495494368192
118.9128498885858
118.82673040887902
118.7881721811738
118.77963379724123
118.79937539241193
118.86224443669815
119.00688853605553
119.31060972537335
119.9129940076372
121.04798095406983
123.08064448680494
126.53982261792838
132.13272418668987
140.72533255796435
153.2779813385648
170.73483123096588
193.88074633238952
223.19700273036173
239.53911994818557
205.02427870897287
177.75021763390464
156.96241906294867
141.70283697615457
130.92489241785586
123.60371459880756
118.82101354797801
115.8149821800003
113.99583581602415
112.93480667054536
112.33768950466774
112.01320644181868
111.84322385306383
111.75864801219441
111.72216676101668
111.71766479226244
111.74580943603574
111.82569276148442
112.00310910280459
112.36651464290942
113.07137332221525
114.37188139227574
116.65557877581367
120.47168262107596
126.53981900029065
135.72494467118753
148.9685066514678
167.17672619132748
191.08242421640065
221.11161249721187
231.3807388270412
198.11902205330136
171.7123049120999
151.49380444581467
136.58923860674676
126.02232844626448
118.82101105424177
114.10352799650693
111.13157309486965
109.32958865747638
108.27690926157223
107.68376540676786
107.36121115103285
107.19237428355294
107.10898456625857
107.07457236925755
107.07431730994593
107.11114250414876
107.2080005266125
107.41687226926416
107.83531360866799
108.63088819404841
110.07200336759384
112.56029571061087
116.65557681482018
123.08064169371205
132.69281878666428
146.4136549224972
165.11896589862948
189.5063141537262
219.96914450608315
226.1768363495963
193.78622841031566
167.95155379789213
148.08995743001657
133.3974823900742
122.9509015443431
115.81497995947946
111.13158001435994
108.17672388045739
106.38302353753302
105.33424310456634
104.74292521170639
104.42131379849617
104.25321189735452
104.17088386640158
104.13855467977584
104.14256383776183
104.18783246051592
104.30058467106785
104.53775696251414
105.00373940195239
105.87452329600947
107.427497995529
110.07200521548093
114.37188193504575
121.0479802962657
130.9482450257802
144.9777598453943
163.99139506472247
188.66542860445776
219.37627402762263
222.98900713902083
191.17300116827755
165.6975306065581
146.04950767023513
131.47825809630848
121.09749297168095
113.99584117249769
109.32958707699804
106.38302227154654
104.59319421802076
103.54619742394335
102.95572961369191
102.6346381096969
102.46710767291306
102.3857883805451
102.35549083268032
102.36354980607834
102.41654251445499
102.54326724292748
102.80432783832921
103.30882821400444
104.23808906557004
105.87452197131223
108.63088786494274
113.07137305639553
119.91299341386443
129.9954776242646
144.21229828624087
163.40554206714467
188.24008338821176
219.08456933460747
221.1108171011838
189.65597133351875
164.39573243473995
144.87005382749035
130.3652596374808
120.01914479843052
112.93481392472586
108.27690954768188
105.33424479568934
103.54619728414181
102.50002375677518
101.90999058592858
101.58925504568808
101.42223423353022
101.34187509569229
101.31347005330414
101.32515996359875
101.38480187711093
101.52307087324077
101.80307133029329
102.33687744822132
103.30882965087862
105.00373982414813
107.83531239688452
112.36651270124744
119.31060845930129
129.5013665334631
143.82509645034543
163.11686431353894
188.0361620663788
218.94869550107913
220.044692251453
188.80684983858825
163.67017651568077
144.21178597552517
129.7420818520166
119.41354511115502
112.33768522522537
107.68376625897425
104.74292218885654
102.95572958917248
101.90999166260868
101.32025274092665
100.99983335487465
100.83330547119968
100.75384552706517
100.72712372615831
100.74189258448108
100.80692898097662
100.95417398337283
101.24829888988427
101.80307241124613
102.804328629257
104.53775637795185
107.41687485129926
112.00311283632527
119.00689505995761
129.25821654684012
143.63943698267545
162.98222766044043
187.9439034654339
218.8895466609589
219.4609200457375
188.34788429873012
163.27936480795537
143.85657925972336
129.40482182821424
119.0849670078975
112.01320553513827
107.36121496452832
104.42131236709236
102.63463911388159
101.58925443495431
100.9998329972195
100.67977722931951
100.51376604692368
100.43514671159933
100.40987025796677
100.42712337201208
100.4962984015924
100.65012541029306
100.95417313367187
101.52307059850042
102.54326836122262
104.3005824480945
107.20799968214541
111.8256913062335
118.86224220415737
129.14556053750087
143.5560294835302
162.9239173008373
187.90589336183265
218.8674067579329
219.15192304119518
188.1079473911107
163.07569013202527
143.67120825148515
129.2284057185237
118.91284245217963
111.84322437033677
107.19237133022672
104.25321097496939
102.46710919879004
101.42223348957441
100.83330545229936
100.5137659596092
100.3483631449663
100.27056397425974
100.24651861766476
100.26570510542471
100.3379025203078
100.49629827327314
100.80692920897889
101.38480177934366
102.41654321199246
104.18783225712303
107.11114475779307
111.74581336212296
118.79937216971672
129.09870136587426
143.52335918446354
162.90320067317836
187.89506830508807
218.86513452340918
218.99370915255304
187.98664571456717
162.97310481091657
143.5779870073204
129.1398243386553
118.82672875901606
111.75865405976926
107.10898391855825
104.17088382342133
102.38578805555257
101.34187508676233
100.753845782626
100.43514662130292
100.27056407385207
100.19365063126884
100.17069722533857
100.19137663434901
100.26570502449265
100.42712315832927
100.7418922910669
101.32515999703712
102.36354931761662
104.1425617393133
107.07431652277333
111.7176632515776
118.77963280675579
129.08666164704408
143.51810190297658
162.90391834058372
187.90166588095573
218.87894856761613
218.91548858881146
187.9277473162876
162.92400611062868
143.53405019715547
129.09894558333588
118.78817202558183
111.72216148548473
107.07457268341942
104.13855575666061
102.35549050851237
101.31347019075439
100.72712310065704
100.40987029006621
100.2465184718015
100.17069722815448
100.14881599719159
100.17069726750886
100.24651853013924
100.4098705083613
100.72712337941509
101.31346986785805
102.35549160655002
104.13855465701823
107.07457495724091
111.72216449937982
118.78816936545311
129.09895439261797
143.53404254929382
162.92402303854632
187.9277154237826
218.91549012964538
218.8789787055548
187.90164650120505
162.9039410180767
143.51812115017157
129.08665912385132
118.77964186223858
111.71766355335592
107.07431954143874
104.14256173932661
102.363550611325
101.32516090354504
100.74189228685516
100.42712368634898
100.26570507169916
100.19137667411917
100.17069729739197
100.19365069454422
100.2705638952842
100.43514671108623
100.75384534939307
101.34187440070653
102.38578806340148
104.17088191188935
107.10898357193895
111.75864763588484
118.82673007683975
129.13980940600769
143.57796832085992
162.97311566398284
187.98661021496827
218.99370231213663
218.86516693833462
187.89504700547772
162.90321018113593
143.52334619029253
129.09870454709386
118.79936714831767
111.74580956150048
107.11114634135701
104.1878303583136
102.41654373450426
101.38480126954236
100.80692881066486
100.49629815508624
100.33790243568788
100.26570517453771
100.2465186369856
100.27056399793602
100.34836325642549
100.5137660988098
100.83330525079427
101.42223408175524
102.4671084469702
104.2532122355451
107.1923729720035
111.84322215120127
118.9128477602001
129.2283986942859
143.671218383364
163.07565888900606
188.10794026366835
219.15194728715778
218.86737005173632
187.90590582923312
162.92392774648377
143.55601452781653
129.14556488507287
118.86223677139866
111.82569210503434
107.20799717107376
104.30058307187153
102.54326898470914
101.52307002570106
100.9541737544991
100.65012527506295
100.49629831193184
100.42712335880435
100.40987025042936
100.43514664176429
100.51376614280015
100.67977709291947
100.99983284044883
101.58925484583833
102.63463870855374
104.42131339676796
107.36121280914324
112.01320955603765
119.08496101040397
129.4048144658923
143.85659536489422
163.27934707403392
188.34789043494837
219.4609591439122
218.889525329635
187.943914373679
162.98220891904745
143.63944039269717
129.25820874831638
119.00688917705769
112.00311513389202
107.41687181839531
104.53775724653828
102.80432778053932
101.80307173892427
101.24829867563963
100.95417381536794
100.80692914349221
100.74189261031836
100.72712373041743
100.75384557743276
100.83330552995442
100.99983323004818
101.32025304332508
101.90999117207248
102.95573025842997
104.74292301026284
107.6837645630155
112.33768829662215
119.41353950656257
129.7420885186963
144.21176133100977
163.67017139512112
188.8068742671518
220.0447532031057
218.94870483977834
188.03617167233668
163.11684297330035
143.8251014551066
129.50135850363876
119.31060960271095
112.36650882669312
107.83531343910803
105.00374088719975
103.30882871414349
102.33687855184601
101.80307113861451
101.52307072580805
101.38480183324263
101.32515990174853
101.31347005180781
101.34187517566667
101.42223414430958
101.5892549743895
101.90999079380563
102.50002347300803
103.54619782456692
105.33424332658667
108.27691200302161
112.93480967921145
120.01913974799601
130.36527196774185
144.87004284225108
164.3957442902143
189.65602154541975
221.11075454207935
219.08457538468076
188.2400562344123
163.40554566600912
144.21228736954393
129.99546937043428
119.91299684150547
113.07136861850171
108.63088932407503
105.87452069267317
104.2380880275486
103.30882786422202
102.80432753154659
102.54326755430074
102.41654260194146
102.3635498113051
102.35549085205751
102.38578839135302
102.46710760115094
102.63463826576346
102.95572932850689
103.54619782499502
104.59319464727344
106.38302122787287
109.3295891237399
113.99583771025131
121.09749869550427
131.47824228430042
146.04950922341703
165.69756162194275
191.1730764588451
222.98898677287914
219.37630212269573
188.66542009712444
163.9914167387545
144.97776118632103
130.94825624278758
121.04798204861937
114.37188935365177
110.07201158812745
107.42750048621343
105.87452861336811
105.00374241200527
104.5377598353245
104.30058759487387
104.1878352714247
104.14256684826
104.13855773582337
104.17088670096166
104.25321479135171
104.4213167263211
104.74292771094522
105.3342458862596
106.38302478828328
108.17672704329158
111.13157813555024
115.81497678353765
122.95090939470018
133.39747285437332
148.08996496365853
167.95159262891883
193.78616562793337
226.1768105461353
219.96913779246358
189.506339850171
165.1189683605864
146.41365732241826
132.69283429224618
123.08064426195703
116.65558630472798
112.56030014522035
110.07200747669792
108.63089287124242
107.83531807370422
107.41687767999088
107.20800558713779
107.11114733007946
107.07432208864567
107.07457709522868
107.10898927196804
107.19237907312109
107.36121564899683
107.68377024372555
108.27691378714695
109.3295920926951
111.13157798372053
114.10352869118041
118.82101712503126
126.02231828298872
136.5892397256173
151.49382636002434
171.71235770798995
198.1189885344652
231.3807225943166
221.11159742895452
191.08244361721447
167.1767219769188
148.9685170839468
135.7249437268612
126.53982700849141
120.47168999879892
116.65558101591277
114.37188817179536
113.07137697278073
112.36651810981554
112.00311264512275
111.82569609165532
111.74581321840954
111.71766866966463
111.72217031343487
111.75865178993612
111.84322758885624
112.01320992830294
112.33769327643905
112.93480972676669
113.99584023709312
115.81498377554894
118.82101516778003
123.60372432311291
130.92489086669016
141.70284882693127
156.9624549838608
177.75016813146573
205.02425428275728
239.5391218840756
223.19701081209598
193.88073093961134
170.73481921810506
153.27798879493133
140.725325566434
132.13272792493152
126.53982060153525
123.08064272375363
121.04798030909332
119.91299324351081
119.31061060063318
119.00688909433299
118.86224460246876
118.79937545624331
118.77963377085491
118.78817225941074
118.82673054611006
118.91284994315951
119.08495540323452
119.41354130143723
120.01914346709619
121.09749523040047
122.95091003372941
126.02232150474372
130.92488925751465
138.4567099720439
149.58857427728552
165.41510476664476
187.0664501217003
215.5882053513645
251.80729638763663
226.80086467353945
198.58509537054613
176.56223735137016
160.1673991769825
148.54916628326094
140.72533078730635
135.7249414333827
132.69281273537004
130.94823827774266
129.9954696410828
129.50136124670033
129.25821277989476
129.14555443332037
129.098697926789
129.08665438063534
129.09894940368497
129.13980120372355
129.2283938800309
129.40481209707488
129.7420826426787
130.365262897953
131.4782372004775
133.39747259804375
136.58923749593558
141.70284151828326
149.58856808471145
161.28647904390428
177.97409008202288
200.8678492079285
231.08492116801676
269.48463740639266
232.69612635790767
206.07394877914442
185.60293195238378
170.60688253875728
160.1674522206455
153.27800048508666
148.9685379210021
146.41367473359688
144.97778463737245
144.21233816860988
143.82512063262618
143.63946458170494
143.55605258950808
143.52338545953756
143.5181238661345
143.53406853071206
143.57800791444302
143.67124212440467
143.85661394596139
144.21179499018342
144.87007018200833
146.0495312201392
148.08999727720595
151.4938497181153
156.9624730550108
165.4151202709617
177.9741185843604
195.9018826334141
220.48377256340726
252.8659063684076
293.8736268258216
241.83072657743605
217.37117985905053
198.89292045574064
185.60290924589677
176.56227492186258
170.73484352111078
167.17675424286227
165.1190021080357
163.9914127685629
163.4055780900311
163.11687980707123
162.98224811525984
162.92393258480374
162.9032207203518
162.90395620383387
162.92404025072315
162.97313998666868
163.07568881703088
163.27936902524866
163.67020058647967
164.39576543060346
165.69757430294698
167.95162205337317
171.71237622904388
177.7501927210726
187.0664652130696
200.867865893729
220.48377307471037
247.22232943435012
282.18369806120273
326.07431325036475
255.26586668644785
233.55460485354772
217.37115881791206
206.07393634100615
198.58512983063423
193.88077409409314
191.0824340603303
189.5063407749599
188.66543189006674
188.24010994846338
188.0361624174706
187.9439102590467
187.90592453208367
187.8950734537314
187.90167854664935
187.92773403461592
187.98663604005594
188.10795750372247
188.3478990771776
188.80689204529529
189.65602947650703
191.17307457090033
193.78619773760778
198.1190014905878
205.02426826536984
215.58821624423294
231.08493133044183
252.86591126934943
282.1836910059667
319.966740722151
366.7234687157805
274.3322158279004
255.2658385978396
241.83071245301136
232.69612814625236
226.80085809080856
223.19701352338967
221.111603368855
219.9691548113776
219.37625539511242
219.0845763694774
218.94870875816218
218.88953279266912
218.86740291088657
218.86513565888762
218.87895697197345
218.9154881347964
218.99370998173134
219.15194626787707
219.46094884480968
220.04475155048206
221.11075735816723
222.9889722529477
226.1768246456955
231.38072262383076
239.53911562315673
251.8072907693698
269.48463838122734
293.8736167405761
326.0742892785038
366.7234508854157
415.08290575875617
