# vtk DataFile Version 2.0
Unstructured Grid Example
ASCII
DATASET UNSTRUCTURED_GRID

POINTS 961 float
0.150000006 -0.00839745998 0
0.146666661 -0.00839745998 0
0.143333331 -0.00839745998 0
0.140000001 -0.00839745998 0
0.13666667 -0.00839745998 0
0.13333334 -0.00839745998 0
0.129999995 -0.00839745998 0
0.126666665 -0.00839745998 0
0.123333335 -0.00839745998 0
0.119999997 -0.00839745998 0
0.116666667 -0.00839745998 0
0.113333337 -0.00839745998 0
0.109999999 -0.00839745998 0
0.106666669 -0.00839745998 0
0.103333332 -0.00839745998 0
0.100000001 -0.00839745998 0
0.0966666639 -0.00839745998 0
0.0933333337 -0.00839745998 0
0.0900000036 -0.00839745998 0
0.086666666 -0.00839745998 0
0.0833333358 -0.00839745998 0
0.0799999982 -0.00839745998 0
0.0766666681 -0.00839745998 0
0.0733333305 -0.00839745998 0
0.0700000003 -0.00839745998 0
0.0666666701 -0.00839745998 0
0.0633333325 -0.00839745998 0
0.0599999987 -0.00839745998 0
0.0566666685 -0.00839745998 0
0.0533333346 -0.00839745998 0
0.0500000007 -0.00839745998 0
0.148333326 -0.0112842107 0
0.144999996 -0.0112842107 0
0.141666666 -0.0112842107 0
0.138333336 -0.0112842107 0
0.135000005 -0.0112842107 0
0.13166666 -0.0112842107 0
0.12833333 -0.0112842107 0
0.125 -0.0112842107 0
0.12166667 -0.0112842107 0
0.118333332 -0.0112842107 0
0.115000002 -0.0112842107 0
0.111666664 -0.0112842107 0
0.108333334 -0.0112842107 0
0.104999997 -0.0112842107 0
0.101666667 -0.0112842107 0
0.0983333364 -0.0112842107 0
0.0949999988 -0.0112842107 0
0.0916666687 -0.0112842107 0
0.088333331 -0.0112842107 0
0.0850000009 -0.0112842107 0
0.0816666633 -0.0112842107 0
0.0783333331 -0.0112842107 0
0.075000003 -0.0112842107 0
0.0716666654 -0.0112842107 0
0.0683333352 -0.0112842107 0
0.0649999976 -0.0112842107 0
0.0616666675 -0.0112842107 0
0.0583333336 -0.0112842107 0
0.0549999997 -0.0112842107 0
0.0516666658 -0.0112842107 0
0.0483333319 -0.0112842107 0
0.146666661 -0.0141709624 0
0.143333331 -0.0141709624 0
0.140000001 -0.0141709624 0
0.13666667 -0.0141709624 0
0.13333334 -0.0141709624 0
0.129999995 -0.0141709624 0
0.126666665 -0.0141709624 0
0.123333335 -0.0141709624 0
0.119999997 -0.0141709624 0
0.116666667 -0.0141709624 0
0.113333337 -0.0141709624 0
0.109999999 -0.0141709624 0
0.106666669 -0.0141709624 0
0.103333332 -0.0141709624 0
0.100000001 -0.0141709624 0
0.0966666639 -0.0141709624 0
0.0933333337 -0.0141709624 0
0.0900000036 -0.0141709624 0
0.086666666 -0.0141709624 0
0.0833333358 -0.0141709624 0
0.0799999982 -0.0141709624 0
0.0766666681 -0.0141709624 0
0.0733333305 -0.0141709624 0
0.0700000003 -0.0141709624 0
0.0666666701 -0.0141709624 0
0.0633333325 -0.0141709624 0
0.0599999987 -0.0141709624 0
0.0566666685 -0.0141709624 0
0.0533333346 -0.0141709624 0
0.0500000007 -0.0141709624 0
0.0466666669 -0.0141709624 0
0.144999996 -0.0170577131 0
0.141666666 -0.0170577131 0
0.138333336 -0.0170577131 0
0.135000005 -0.0170577131 0
0.13166666 -0.0170577131 0
0.12833333 -0.0170577131 0
0.125 -0.0170577131 0
0.12166667 -0.0170577131 0
0.118333332 -0.0170577131 0
0.115000002 -0.0170577131 0
0.111666664 -0.0170577131 0
0.108333334 -0.0170577131 0
0.104999997 -0.0170577131 0
0.101666667 -0.0170577131 0
0.0983333364 -0.0170577131 0
0.0949999988 -0.0170577131 0
0.0916666687 -0.0170577131 0
0.088333331 -0.0170577131 0
0.0850000009 -0.0170577131 0
0.0816666633 -0.0170577131 0
0.0783333331 -0.0170577131 0
0.075000003 -0.0170577131 0
0.0716666654 -0.0170577131 0
0.0683333352 -0.0170577131 0
0.0649999976 -0.0170577131 0
0.0616666675 -0.0170577131 0
0.0583333336 -0.0170577131 0
0.0549999997 -0.0170577131 0
0.0516666658 -0.0170577131 0
0.0483333319 -0.0170577131 0
0.0450000018 -0.0170577131 0
0.143333331 -0.0199444648 0
0.140000001 -0.0199444648 0
0.13666667 -0.0199444648 0
0.13333334 -0.0199444648 0
0.129999995 -0.0199444648 0
0.126666665 -0.0199444648 0
0.123333335 -0.0199444648 0
0.119999997 -0.0199444648 0
0.116666667 -0.0199444648 0
0.113333337 -0.0199444648 0
0.109999999 -0.0199444648 0
0.106666669 -0.0199444648 0
0.103333332 -0.0199444648 0
0.100000001 -0.0199444648 0
0.0966666639 -0.0199444648 0
0.0933333337 -0.0199444648 0
0.0900000036 -0.0199444648 0
0.086666666 -0.0199444648 0
0.0833333358 -0.0199444648 0
0.0799999982 -0.0199444648 0
0.0766666681 -0.0199444648 0
0.0733333305 -0.0199444648 0
0.0700000003 -0.0199444648 0
0.0666666701 -0.0199444648 0
0.0633333325 -0.0199444648 0
0.0599999987 -0.0199444648 0
0.0566666685 -0.0199444648 0
0.0533333346 -0.0199444648 0
0.0500000007 -0.0199444648 0
0.0466666669 -0.0199444648 0
0.043333333 -0.0199444648 0
0.141666666 -0.0228312165 0
0.138333336 -0.0228312165 0
0.135000005 -0.0228312165 0
0.13166666 -0.0228312165 0
0.12833333 -0.0228312165 0
0.125 -0.0228312165 0
0.12166667 -0.0228312165 0
0.118333332 -0.0228312165 0
0.115000002 -0.0228312165 0
0.111666664 -0.0228312165 0
0.108333334 -0.0228312165 0
0.104999997 -0.0228312165 0
0.101666667 -0.0228312165 0
0.0983333364 -0.0228312165 0
0.0949999988 -0.0228312165 0
0.0916666687 -0.0228312165 0
0.088333331 -0.0228312165 0
0.0850000009 -0.0228312165 0
0.0816666633 -0.0228312165 0
0.0783333331 -0.0228312165 0
0.075000003 -0.0228312165 0
0.0716666654 -0.0228312165 0
0.0683333352 -0.0228312165 0
0.0649999976 -0.0228312165 0
0.0616666675 -0.0228312165 0
0.0583333336 -0.0228312165 0
0.0549999997 -0.0228312165 0
0.0516666658 -0.0228312165 0
0.0483333319 -0.0228312165 0
0.0450000018 -0.0228312165 0
0.0416666679 -0.0228312165 0
0.140000001 -0.0257179681 0
0.13666667 -0.0257179681 0
0.13333334 -0.0257179681 0
0.129999995 -0.0257179681 0
0.126666665 -0.0257179681 0
0.123333335 -0.0257179681 0
0.119999997 -0.0257179681 0
0.116666667 -0.0257179681 0
0.113333337 -0.0257179681 0
0.109999999 -0.0257179681 0
0.106666669 -0.0257179681 0
0.103333332 -0.0257179681 0
0.100000001 -0.0257179681 0
0.0966666639 -0.0257179681 0
0.0933333337 -0.0257179681 0
0.0900000036 -0.0257179681 0
0.086666666 -0.0257179681 0
0.0833333358 -0.0257179681 0
0.0799999982 -0.0257179681 0
0.0766666681 -0.0257179681 0
0.0733333305 -0.0257179681 0
0.0700000003 -0.0257179681 0
0.0666666701 -0.0257179681 0
0.0633333325 -0.0257179681 0
0.0599999987 -0.0257179681 0
0.0566666685 -0.0257179681 0
0.0533333346 -0.0257179681 0
0.0500000007 -0.0257179681 0
0.0466666669 -0.0257179681 0
0.043333333 -0.0257179681 0
0.0399999991 -0.0257179681 0
0.138333336 -0.0286047198 0
0.135000005 -0.0286047198 0
0.13166666 -0.0286047198 0
0.12833333 -0.0286047198 0
0.125 -0.0286047198 0
0.12166667 -0.0286047198 0
0.118333332 -0.0286047198 0
0.115000002 -0.0286047198 0
0.111666664 -0.0286047198 0
0.108333334 -0.0286047198 0
0.104999997 -0.0286047198 0
0.101666667 -0.0286047198 0
0.0983333364 -0.0286047198 0
0.0949999988 -0.0286047198 0
0.0916666687 -0.0286047198 0
0.088333331 -0.0286047198 0
0.0850000009 -0.0286047198 0
0.0816666633 -0.0286047198 0
0.0783333331 -0.0286047198 0
0.075000003 -0.0286047198 0
0.0716666654 -0.0286047198 0
0.0683333352 -0.0286047198 0
0.0649999976 -0.0286047198 0
0.0616666675 -0.0286047198 0
0.0583333336 -0.0286047198 0
0.0549999997 -0.0286047198 0
0.0516666658 -0.0286047198 0
0.0483333319 -0.0286047198 0
0.0450000018 -0.0286047198 0
0.0416666679 -0.0286047198 0
0.038333334 -0.0286047198 0
0.13666667 -0.0314914696 0
0.13333334 -0.0314914696 0
0.129999995 -0.0314914696 0
0.126666665 -0.0314914696 0
0.123333335 -0.0314914696 0
0.119999997 -0.0314914696 0
0.116666667 -0.0314914696 0
0.113333337 -0.0314914696 0
0.109999999 -0.0314914696 0
0.106666669 -0.0314914696 0
0.103333332 -0.0314914696 0
0.100000001 -0.0314914696 0
0.0966666639 -0.0314914696 0
0.0933333337 -0.0314914696 0
0.0900000036 -0.0314914696 0
0.086666666 -0.0314914696 0
0.0833333358 -0.0314914696 0
0.0799999982 -0.0314914696 0
0.0766666681 -0.0314914696 0
0.0733333305 -0.0314914696 0
0.0700000003 -0.0314914696 0
0.0666666701 -0.0314914696 0
0.0633333325 -0.0314914696 0
0.0599999987 -0.0314914696 0
0.0566666685 -0.0314914696 0
0.0533333346 -0.0314914696 0
0.0500000007 -0.0314914696 0
0.0466666669 -0.0314914696 0
0.043333333 -0.0314914696 0
0.0399999991 -0.0314914696 0
0.0366666652 -0.0314914696 0
0.135000005 -0.0343782231 0
0.13166666 -0.0343782231 0
0.12833333 -0.0343782231 0
0.125 -0.0343782231 0
0.12166667 -0.0343782231 0
0.118333332 -0.0343782231 0
0.115000002 -0.0343782231 0
0.111666664 -0.0343782231 0
0.108333334 -0.0343782231 0
0.104999997 -0.0343782231 0
0.101666667 -0.0343782231 0
0.0983333364 -0.0343782231 0
0.0949999988 -0.0343782231 0
0.0916666687 -0.0343782231 0
0.088333331 -0.0343782231 0
0.0850000009 -0.0343782231 0
0.0816666633 -0.0343782231 0
0.0783333331 -0.0343782231 0
0.075000003 -0.0343782231 0
0.0716666654 -0.0343782231 0
0.0683333352 -0.0343782231 0
0.0649999976 -0.0343782231 0
0.0616666675 -0.0343782231 0
0.0583333336 -0.0343782231 0
0.0549999997 -0.0343782231 0
0.0516666658 -0.0343782231 0
0.0483333319 -0.0343782231 0
0.0450000018 -0.0343782231 0
0.0416666679 -0.0343782231 0
0.038333334 -0.0343782231 0
0.0350000001 -0.0343782231 0
0.13333334 -0.0372649729 0
0.129999995 -0.0372649729 0
0.126666665 -0.0372649729 0
0.123333335 -0.0372649729 0
0.119999997 -0.0372649729 0
0.116666667 -0.0372649729 0
0.113333337 -0.0372649729 0
0.109999999 -0.0372649729 0
0.106666669 -0.0372649729 0
0.103333332 -0.0372649729 0
0.100000001 -0.0372649729 0
0.0966666639 -0.0372649729 0
0.0933333337 -0.0372649729 0
0.0900000036 -0.0372649729 0
0.086666666 -0.0372649729 0
0.0833333358 -0.0372649729 0
0.0799999982 -0.0372649729 0
0.0766666681 -0.0372649729 0
0.0733333305 -0.0372649729 0
0.0700000003 -0.0372649729 0
0.0666666701 -0.0372649729 0
0.0633333325 -0.0372649729 0
0.0599999987 -0.0372649729 0
0.0566666685 -0.0372649729 0
0.0533333346 -0.0372649729 0
0.0500000007 -0.0372649729 0
0.0466666669 -0.0372649729 0
0.043333333 -0.0372649729 0
0.0399999991 -0.0372649729 0
0.0366666652 -0.0372649729 0
0.0333333351 -0.0372649729 0
0.13166666 -0.0401517227 0
0.12833333 -0.0401517227 0
0.125 -0.0401517227 0
0.12166667 -0.0401517227 0
0.118333332 -0.0401517227 0
0.115000002 -0.0401517227 0
0.111666664 -0.0401517227 0
[...]
POINT_DATA 961
SCALARS Temp float 1
LOOKUP_TABLE default
325.23527454307015
275.35709415726814
238.35675312064203
213.89866732268916
199.0989871282272
190.84952886274974
186.58405128629732
184.52276984805448
183.58474511230511
183.17990821860312
183.01314238958855
182.9472094755889
182.92206870611355
182.91278555573393
182.9094557376509
182.90829027024898
182.9078962309832
182.90777883717624
182.9078069760123
182.90808067697952
182.9092008071087
182.91339476302815
182.9282218423025
182.9775258097487
183.13032778362927
183.56752737497737
184.71093138489624
187.41855538266495
193.17972577597433
204.1497021747456
223.214556590842
275.3571110073244
229.07922223747536
197.09884937128058
176.7379101190077
164.81964834637571
158.36950406978812
155.11980848309562
153.58432447112378
152.89895542507364
152.60802320067876
152.48987401359923
152.44373176104835
152.4263250698975
152.41995801620953
152.41769148725606
152.41690792567167
152.41664976136911
152.4165975190228
152.41671836631883
152.4173045940434
152.41956190793533
152.42771653982288
152.45550922584812
152.54418404320717
152.80677033199458
153.52167457849737
155.2944945874717
159.2651448659237
167.24536323583078
181.5976312707291
204.14972034745537
238.35671612784517
197.09883608205502
169.09618281857752
151.56121770343572
141.4137636323214
135.96305828025564
133.2289579067885
131.9397074396387
131.36442634358576
131.12002386906752
131.02061953220948
130.98172327360538
130.96701918615366
130.96162948226436
130.9597083721047
130.95904341470475
130.95883285005726
130.95883124359042
130.95910031948083
130.96022274768828
130.96436767666702
130.9787831866473
131.0259113683421
131.16964311429498
131.57508308770696
132.62368122049548
135.08971918400246
140.32509936631814
150.30124036229378
167.24535355954114
193.1797324847088
213.89862893621589
176.73789557909845
151.56122309145613
135.7805657369158
126.61896369986789
121.67454076414614
119.18070330240907
117.99800347702241
117.46732211123027
117.24069508018731
117.14808330539697
117.11169279665278
117.09788483572956
117.09280644577679
117.09099289089465
117.09036770542642
117.09018569780599
117.09024971681085
117.09075621422285
117.09271910278964
117.09967731249755
117.12289659378621
117.195497711599
117.4066741056091
117.97366375417265
119.36826781372186
122.48922966772632
128.80709556701729
140.32511082295719
159.2651566619917
187.41854740288662
199.098961309718
164.8196402768339
141.41376246859218
126.61899773890455
117.9596238302332
113.2516234506299
110.86166862454577
109.72199387646438
109.20826424628281
108.98803805918665
108.89775820150987
108.86219158471589
108.84866729775881
108.84368532804437
108.84190389948364
108.84129511487986
108.84114288617835
108.84130690096485
108.84216635672725
108.84531835670313
108.85603050683005
108.89024084070701
108.99241024416888
109.27587874120971
110.00177196961714
111.7071107714683
115.36349231124183
122.4892249587622
135.0897160939994
155.29449183501828
184.71093793628893
190.8495066235979
158.36952374784195
135.96308368818185
121.67451961059479
113.25161602005947
108.64648016881482
106.29864218960904
105.17534581117886
104.66771685372441
104.44968071865743
104.36016454050956
104.32485715047497
104.31141882313693
104.30646568095666
104.30469615034156
104.30410109944596
104.30398846179904
104.30429332797203
104.30562879232902
104.31029203134761
104.32547017194511
104.37184217780985
104.50423771937524
104.8555901678895
105.7179486052417
107.66684138437147
111.70710964008056
119.36826872972979
132.62368754401425
153.52165649928565
183.56751899029086
186.58405227201553
155.11982148304782
133.2289884352647
119.1806779261182
110.86166066906647
106.29864081107378
103.96696992077563
102.84961135084389
102.34407999373718
102.12676274083677
102.03748684950432
102.00225807314665
101.9888454974755
101.9839009897641
101.9821378042994
101.98155851073315
101.98149978872233
101.98198641907645
101.98390114895328
101.99028670655655
102.01019754129167
102.0684867782358
102.22812345775137
102.63551644926876
103.60086474284013
105.7179471825538
110.00176826936337
117.97365766551282
131.57507989877467
152.80676758974906
183.13033706648434
184.5227796609581
153.58434254975631
131.9396638567478
117.9979826937042
109.72199104376125
105.17534930493315
102.84961069470997
101.73431688607359
101.22947949023626
101.0123909049837
100.9231880774236
100.88798250971378
100.87457749698393
100.86963673982466
100.86787985183858
100.86732019377271
100.86732806183457
100.86802722888861
100.87057627581613
100.87871738802548
100.90309419210884
100.97173916787905
101.15309101685064
101.60137608762798
102.63551591449867
104.85558955381651
109.2758790957929
117.40667459007088
131.16963193614043
152.54416623097217
182.9775161542918
183.58474637230077
152.89898175868365
131.3643846752449
117.46730755863504
109.20826443085085
104.66771361949385
102.34407975122019
101.22948086997444
100.72486677570991
100.50784866432966
100.41866754555002
100.38346881743361
100.37006622028983
100.36512799883978
100.36337821788061
100.36284212883334
100.3629250515583
100.36384875824642
100.36702228386991
100.37676440937904
100.40489706745392
100.48154360740931
100.67827528063775
101.15309144483307
102.22812328896106
104.50423703823137
108.99240948717416
117.19549450996664
131.02591441855898
152.45551471727498
182.92823982020457
183.17993411793006
152.60796088027703
131.12000506340968
117.24069321172551
108.98804599827191
104.44968054940294
102.12676449870044
101.01239086432469
100.50784855544799
100.29085127884201
100.20167677409326
100.1664800836645
100.15307872098634
100.14814308490803
100.14640134647422
100.14589090031295
100.14605055495458
100.14718829489935
100.15091399326745
100.1619636620476
100.19291873919602
100.27508485486416
100.48154338604361
100.97173900983803
102.06848678607115
104.37184209649824
108.89024107790777
117.1228853110848
130.97877110944265
152.42770106623516
182.91338539933403
183.01319713360544
152.4898280029628
131.0206120146496
117.14808786044972
108.89775449115197
104.36016566178205
102.03748941275498
100.9231881070541
100.41866779952387
100.20167676504937
100.11250422759984
100.0773082979447
100.06390799385171
100.05897513744617
100.05724197232192
100.05675699581552
100.05698771740279
100.05830955251811
100.06247438264575
100.07448232051794
100.1073390071578
100.19291885868878
100.40489714103587
100.90309394961868
102.01019705447325
104.32546951407414
108.85602849981542
117.099676294371
130.9643715921301
152.4195700383364
182.90918788176174
182.94715595715206
152.44370595998492
130.98172480103597
117.1117035176973
108.86218832633017
104.32485890703317
102.00225706957458
100.88798269361317
100.38346837840444
100.16648009203611
100.07730836286741
100.04211305785172
100.02871393350972
100.02378406753785
100.02205932421987
100.02159742873873
100.0218878095548
100.02335260608022
100.02783213153953
100.04047231289327
100.07448239756408
100.16196373612169
100.3767643150778
100.87871782180132
101.99028762040085
104.31029456892952
108.84531591042976
117.09271530163372
130.96022352425788
152.41730557147562
182.9080942850857
182.92204841325608
152.42632593516325
130.9670362898742
117.09787867214023
108.84866889791873
104.31142395568953
101.98884517851467
100.8745783506408
100.3700659687131
100.15307881456741
100.06390795433127
100.02871391438275
100.01531650724961
100.01038999195245
100.00867309837106
100.00823044587695
100.0085663778782
100.01013169676888
100.01481503700016
100.02783209196423
100.06247436593884
100.15091409863288
100.36702194706493
100.87057612096375
101.98390076402137
104.30562781886235
108.84216545068399
117.09075508836168
130.95910541778815
152.416696843142
182.90780977112863
182.91276922206413
152.41996039672688
130.9616500159087
117.09279940995948
108.84368705953457
104.30646303349363
101.98390099922686
100.86963613961133
100.3651278520285
100.14814324057383
100.058975080571
100.0237840606111
100.01038998849988
100.00546790122678
100.00375849280262
100.00333102409593
100.00369890808783
100.0053285444673
100.01013169177001
100.02335261597206
100.05830953987174
100.14718835758994
100.3638487281852
100.86802768328032
101.98198751395994
104.30429208765864
108.84130474320366
117.09024646226558
130.95883152585347
152.4166010654309
182.90777863933621
182.90945688223914
152.41771003323888
130.95969802112327
117.09099275345632
108.84191165851207
104.30469519809516
101.9821395686708
100.86787962776033
100.36337819316554
100.14640131485999
100.0572419656251
100.02205933719993
100.00867309492955
100.0037584950591
100.00205749219997
100.00164226869762
100.00203137526816
100.00369890576559
100.00856637008188
100.02188779425983
100.05698772198842
100.14605051007864
100.3629247486062
100.86732790236039
101.98149926775052
104.30398806281617
108.84114242486481
117.09018538675751
130.95882086692453
152.41664644943808
182.90788912455335
182.90828979255485
152.416927409168
130.959031884958
117.09036875296411
108.84128955902348
104.30410071634178
101.98155705220647
100.86732020768942
100.36284228377276
100.14589085025756
100.05675700036285
100.02159739722038
100.00823044590115
100.00333102026518
100.0016422686615
100.00123871332522
100.00164226946657
100.00333102148136
100.00823045485996
100.02159741127305
100.05675697852288
100.14589097653281
100.36284211870931
100.867320716176
101.98155788589425
104.30409997005067
108.84129402025552
117.0903646750441
130.95904778148142
152.41689963446143
182.90829346452034
182.90791404674673
152.41662643004938
130.95883718929917
117.09019777728162
108.84114076398865
104.30399158587134
101.98149928541716
100.86732844369175
100.36292474580094
100.14605062487325
100.05698778440836
100.0218877911046
100.00856638771063
100.00369890645503
100.00203137601196
100.00164227012476
100.002057493581
100.0037584903423
100.00867309775232
100.0220593136832
100.05724191861282
100.14640130854167
100.36337793917818
100.86787958783067
101.9821377539249
104.30469604535138
108.84190428959782
117.09098168403997
130.9597061732297
152.41767724497197
182.90944771393006
182.9078090077291
152.41658016187392
130.95883921834888
117.09023869754972
108.84130607424889
104.30429021439063
101.98198633359354
100.86802800800689
100.36384841684509
100.14718840785865
100.05830950353806
100.02335259284908
100.01013168851078
100.00532854227008
100.00369890955267
100.00333102482203
100.00375849328238
100.0054679044772
100.01038999342116
100.02378405062282
100.05897512804063
100.14814316051651
100.36512805688855
100.86963647412891
101.98390052076229
104.30646497859895
108.84368351828155
117.0928060170306
130.96162271189723
152.41994987194963
182.91278628054366
182.90777598349155
152.4167094639071
130.95911470126603
117.09074509293836
108.84216772717794
104.30562559198472
101.98390084186603
100.87057561669751
100.36702201298155
100.15091416671807
100.06247432314213
100.0278321236047
100.01481503243217
100.0101316943081
100.0085663774748
100.00823044548603
100.00867309715898
100.01038999504958
100.01531650209463
100.02871390814495
100.06390798194774
100.15307878449876
100.37006613119361
100.87457788492989
101.98884637834804
104.31142133452721
108.84866464111329
117.09788631948724
130.96701873394346
152.42632447607232
182.92207762032928
182.90807455471767
152.41731632466858
130.96020913367136
117.09271667846629
108.84531184332866
104.31029205411507
101.99028827738438
100.87871713468478
100.37676444315507
100.16196365376227
100.07448234283117
100.04047230469776
100.02783212495574
100.02335261044648
100.02188781321321
100.0215974292143
100.02205932511683
100.02378406911177
100.02871392849275
100.04211307503347
100.07730832601115
100.16648016639512
100.38346847922537
100.88798234572194
102.0022576574021
104.32485618535837
108.86219067933867
117.11168427532812
130.98171638393427
152.44372202091344
182.94720925214898
182.90919623708368
152.419578341768
130.9643530969429
117.09967919479045
108.85602407656707
104.32546968770849
102.01019599463604
100.90309412974362
100.40489731490493
100.19291876098214
100.1073390895826
100.07448231611104
100.06247437754277
100.05830955011068
100.05698771334961
100.05675699658075
100.05724197859759
100.0589751331334
100.06390799365286
100.0773083080357
100.11250420892246
100.20167681684042
100.41866753649306
100.92318853667638
102.03748781416184
104.36016304649935
108.89775869265068
117.14807895406057
131.0206189448947
152.48987362990232
183.01313905601884
182.91338875605095
152.42767428139567
130.97877228292884
117.12287798506928
108.89023651036067
104.37184350887257
102.06848541744168
100.97173932902919
100.48154321725578
100.27508473490178
100.19291871856487
100.16196364061142
100.15091400537204
100.1471883182112
100.14605055828928
100.14589089969074
100.14640134632359
100.14814307944778
100.15307872785141
100.16648006898738
100.20167680651629
100.2908512989907
100.50784836717364
101.01239107617371
102.12676315317255
104.44968233824092
108.98803688782375
117.24069407605788
131.12003085398877
152.60803320518096
183.17992518267704
182.92826552539847
152.45550422364286
131.02593087355086
117.1954943847062
108.99241430293446
104.50423736951497
102.22812507450683
101.15309268241202
100.67827565649998
100.48154429571342
100.40489753952538
100.3767648388837
100.36702270426692
100.36384916442611
100.3629254857903
100.36284258676793
100.36337863274916
100.36512844088509
100.37006665484569
100.38346922030235
100.41866796678438
100.50784889324572
100.72486719707844
101.22948014644169
102.34407830832399
104.66771547076598
109.20825933015117
117.4673129272063
131.36441811315433
152.89892971921182
183.58472813788208
182.977508923414
152.54418855183542
131.16963286568662
117.40667467297472
109.27588642531721
104.8555897729718
102.63551841654116
101.60137710626006
101.15309189752831
100.9717401483971
100.90309511797138
100.87871841306102
100.87057738004765
100.86802823622686
100.86732904537473
100.8673211742382
100.86788082470157
100.86963773301987
100.87457848304577
100.88798353859515
100.92318902354673
101.01239175407629
101.22948044403529
101.73431697457025
102.84961223973585
105.17534495239109
109.7219919301021
117.99799794936769
131.93970527233174
153.5843184165451
184.5227664644888
183.1303207031816
152.8067855483171
131.57507537150212
117.97366342591859
110.00176742682964
105.71795001333173
103.60086703992822
102.63551720152363
102.22812499548395
102.06848801290475
102.01019861490282
101.99028772842922
101.98390209802498
101.98198749705104
101.98150096579832
101.98155951772667
101.98213893646007
101.98390208351873
101.98884653706939
102.00225917629527
102.03748788254339
102.12676388745034
102.34408069745305
102.84961219476656
103.96697287607947
106.29864113939728
110.8616682026256
119.18070355874093
133.2289546089151
155.11980445620742
186.58405441386282
183.56752616002518
153.5216417588892
132.62367713877242
119.36827412296442
111.70710571208711
107.66684293683089
105.71794823611178
104.85558983014685
104.5042376434573
104.37184197221805
104.32547031707378
104.31029251295821
104.30562893309583
104.30429337101138
104.30398847537154
104.30410112918469
104.30469622936931
104.3064657765974
104.31141905899969
104.3248571577727
104.36016465276448
104.44968097773541
104.66771678310798
105.17534680456524
106.29864092339675
108.64648265036566
113.25162787859637
121.67454764592055
135.96306698774043
158.3695082069159
190.84950995005093
184.7109375195223
155.29446816970767
135.08971261551218
122.4892140373817
115.36348947462433
111.70710817275932
110.00176700503116
109.2758755013728
108.99240680721874
108.89023695208247
108.85602642806124
108.84531398350671
108.84216241851887
108.84130326169576
108.84113875636123
108.84129137982424
108.8419000260703
108.84368131027925
108.84866342582198
108.86218770887018
108.89775434178173
108.98803389714428
109.20826082487672
109.72199142663264
110.86166496062363
113.25162437026633
117.95963507678991
126.61896998410464
141.41374188879678
164.81962825216846
199.09896903704953
187.41855630017176
159.2651663430699
140.32513900359558
128.80710707900803
122.48924755668092
119.36828175106442
117.97367722427366
117.40668767556905
117.19551081113315
117.12291059168668
117.09969215967683
117.09273310545035
117.09076992467956
117.09026330534395
117.09019945817793
117.09038151993606
117.09100675797059
117.09282065122242
117.09789843788704
117.1117067133367
117.14809732466377
117.24070866841524
117.46733596805272
117.9980159861993
119.18071720730926
121.6745582125687
126.61898611653734
135.78055169543202
151.5611984999207
176.737870795427
213.8986344238999
193.1797409482597
167.2453835179065
150.30125436045557
140.32512121053898
135.089739651285
132.62369709265664
131.57510128820823
131.1696612807074
131.02592870847138
130.9788000853618
130.9643837180505
130.960239730255
130.95911792317293
130.95884795928666
130.9588503892664
130.95906061805692
130.95972528944864
130.96164657564066
130.96703638419186
130.98174032821726
131.02063608945906
131.12004169184524
131.3644439526769
131.93972336394765
133.22897560806857
135.96307848896745
141.4137539803642
151.56120449897875
169.0961616969024
197.09881497513146
238.3567233628852
204.1497219925211
181.59765428675107
167.2453666598972
159.2651572255554
155.29450247506384
153.5216820931236
152.8067780342759
152.54419104267052
152.4555181051984
152.42772653824343
152.41957038959202
152.41731263311343
152.41672616126542
152.41660592578512
152.41665806318272
152.41691633166627
152.41770040192793
152.41996587331866
152.42633358138698
152.44374030630559
152.48988215818576
152.60803127479056
152.89896315525684
153.5843335512752
155.11981920121482
158.369516640719
164.81963311859366
176.7378833637647
197.09881168778594
229.07918479687325
275.3570346444034
223.21457263004618
204.14969722286003
193.17973044483944
187.41855929750247
184.71092942095453
183.56752859176353
183.13032852127915
182.97752723026224
182.92822266375845
182.91339284218571
182.9092007251498
182.90808110708346
182.90780711502313
182.9077796350547
182.9078965680279
182.90829061456236
182.90945524887755
182.9127862556538
182.9220687650435
182.94720898964985
183.01314334907957
183.1799090549754
183.58474537098658
184.52277051349623
186.58405077121634
190.8495063822252
199.09896345569786
213.89863059842702
238.35670342715486
275.35701711447166
325.2348800515285
