# vtk DataFile Version 2.0
Unstructured Grid Example
ASCII
DATASET UNSTRUCTURED_GRID

POINTS 961 float
0.150000006 -0.00839745998 0
0.146666661 -0.00839745998 0
0.143333331 -0.00839745998 0
0.140000001 -0.00839745998 0
0.13666667 -0.00839745998 0
0.13333334 -0.00839745998 0
0.129999995 -0.00839745998 0
0.126666665 -0.00839745998 0
0.123333335 -0.00839745998 0
0.119999997 -0.00839745998 0
0.116666667 -0.00839745998 0
0.113333337 -0.00839745998 0
0.109999999 -0.00839745998 0
0.106666669 -0.00839745998 0
0.103333332 -0.00839745998 0
0.100000001 -0.00839745998 0
0.0966666639 -0.00839745998 0
0.0933333337 -0.00839745998 0
0.0900000036 -0.00839745998 0
0.086666666 -0.00839745998 0
0.0833333358 -0.00839745998 0
0.0799999982 -0.00839745998 0
0.0766666681 -0.00839745998 0
0.0733333305 -0.00839745998 0
0.0700000003 -0.00839745998 0
0.0666666701 -0.00839745998 0
0.0633333325 -0.00839745998 0
0.0599999987 -0.00839745998 0
0.0566666685 -0.00839745998 0
0.0533333346 -0.00839745998 0
0.0500000007 -0.00839745998 0
0.148333326 -0.0112842107 0
0.144999996 -0.0112842107 0
0.141666666 -0.0112842107 0
0.138333336 -0.0112842107 0
0.135000005 -0.0112842107 0
0.13166666 -0.0112842107 0
0.12833333 -0.0112842107 0
0.125 -0.0112842107 0
0.12166667 -0.0112842107 0
0.118333332 -0.0112842107 0
0.115000002 -0.0112842107 0
0.111666664 -0.0112842107 0
0.108333334 -0.0112842107 0
0.104999997 -0.0112842107 0
0.101666667 -0.0112842107 0
0.0983333364 -0.0112842107 0
0.0949999988 -0.0112842107 0
0.0916666687 -0.0112842107 0
0.088333331 -0.0112842107 0
0.0850000009 -0.0112842107 0
0.0816666633 -0.0112842107 0
0.0783333331 -0.0112842107 0
0.075000003 -0.0112842107 0
0.0716666654 -0.0112842107 0
0.0683333352 -0.0112842107 0
0.0649999976 -0.0112842107 0
0.0616666675 -0.0112842107 0
0.0583333336 -0.0112842107 0
0.0549999997 -0.0112842107 0
0.0516666658 -0.0112842107 0
0.0483333319 -0.0112842107 0
0.146666661 -0.0141709624 0
0.143333331 -0.0141709624 0
0.140000001 -0.0141709624 0
0.13666667 -0.0141709624 0
0.13333334 -0.0141709624 0
0.129999995 -0.0141709624 0
0.126666665 -0.0141709624 0
0.123333335 -0.0141709624 0
0.119999997 -0.0141709624 0
0.116666667 -0.0141709624 0
0.113333337 -0.0141709624 0
0.109999999 -0.0141709624 0
0.106666669 -0.0141709624 0
0.103333332 -0.0141709624 0
0.100000001 -0.0141709624 0
0.0966666639 -0.0141709624 0
0.0933333337 -0.0141709624 0
0.0900000036 -0.0141709624 0
0.086666666 -0.0141709624 0
0.0833333358 -0.0141709624 0
0.0799999982 -0.0141709624 0
0.0766666681 -0.0141709624 0
0.0733333305 -0.0141709624 0
0.0700000003 -0.0141709624 0
0.0666666701 -0.0141709624 0
0.0633333325 -0.0141709624 0
0.0599999987 -0.0141709624 0
0.0566666685 -0.0141709624 0
0.0533333346 -0.0141709624 0
0.0500000007 -0.0141709624 0
0.0466666669 -0.0141709624 0
0.144999996 -0.0170577131 0
0.141666666 -0.0170577131 0
0.138333336 -0.0170577131 0
0.135000005 -0.0170577131 0
0.13166666 -0.0170577131 0
0.12833333 -0.0170577131 0
0.125 -0.0170577131 0
0.12166667 -0.0170577131 0
0.118333332 -0.0170577131 0
0.115000002 -0.0170577131 0
0.111666664 -0.0170577131 0
0.108333334 -0.0170577131 0
0.104999997 -0.0170577131 0
0.101666667 -0.0170577131 0
0.0983333364 -0.0170577131 0
0.0949999988 -0.0170577131 0
0.0916666687 -0.0170577131 0
0.088333331 -0.0170577131 0
0.0850000009 -0.0170577131 0
0.0816666633 -0.0170577131 0
0.0783333331 -0.0170577131 0
0.075000003 -0.0170577131 0
0.0716666654 -0.0170577131 0
0.0683333352 -0.0170577131 0
0.0649999976 -0.0170577131 0
0.0616666675 -0.0170577131 0
0.0583333336 -0.0170577131 0
0.0549999997 -0.0170577131 0
0.0516666658 -0.0170577131 0
0.0483333319 -0.0170577131 0
0.0450000018 -0.0170577131 0
0.143333331 -0.0199444648 0
0.140000001 -0.0199444648 0
0.13666667 -0.0199444648 0
0.13333334 -0.0199444648 0
0.129999995 -0.0199444648 0
0.126666665 -0.0199444648 0
0.123333335 -0.0199444648 0
0.119999997 -0.0199444648 0
0.116666667 -0.0199444648 0
0.113333337 -0.0199444648 0
0.109999999 -0.0199444648 0
0.106666669 -0.0199444648 0
0.103333332 -0.0199444648 0
0.100000001 -0.0199444648 0
0.0966666639 -0.0199444648 0
0.0933333337 -0.0199444648 0
0.0900000036 -0.0199444648 0
0.086666666 -0.0199444648 0
0.0833333358 -0.0199444648 0
0.0799999982 -0.0199444648 0
0.0766666681 -0.0199444648 0
0.0733333305 -0.0199444648 0
0.0700000003 -0.0199444648 0
0.0666666701 -0.0199444648 0
0.0633333325 -0.0199444648 0
0.0599999987 -0.0199444648 0
0.0566666685 -0.0199444648 0
0.0533333346 -0.0199444648 0
0.0500000007 -0.0199444648 0
0.0466666669 -0.0199444648 0
0.043333333 -0.0199444648 0
0.141666666 -0.0228312165 0
0.138333336 -0.0228312165 0
0.135000005 -0.0228312165 0
0.13166666 -0.0228312165 0
0.12833333 -0.0228312165 0
0.125 -0.0228312165 0
0.12166667 -0.0228312165 0
0.118333332 -0.0228312165 0
0.115000002 -0.0228312165 0
0.111666664 -0.0228312165 0
0.108333334 -0.0228312165 0
0.104999997 -0.0228312165 0
0.101666667 -0.0228312165 0
0.0983333364 -0.0228312165 0
0.0949999988 -0.0228312165 0
0.0916666687 -0.0228312165 0
0.088333331 -0.0228312165 0
0.0850000009 -0.0228312165 0
0.0816666633 -0.0228312165 0
0.0783333331 -0.0228312165 0
0.075000003 -0.0228312165 0
0.0716666654 -0.0228312165 0
0.0683333352 -0.0228312165 0
0.0649999976 -0.0228312165 0
0.0616666675 -0.0228312165 0
0.0583333336 -0.0228312165 0
0.0549999997 -0.0228312165 0
0.0516666658 -0.0228312165 0
0.0483333319 -0.0228312165 0
0.0450000018 -0.0228312165 0
0.0416666679 -0.0228312165 0
0.140000001 -0.0257179681 0
0.13666667 -0.0257179681 0
0.13333334 -0.0257179681 0
0.129999995 -0.0257179681 0
0.126666665 -0.0257179681 0
0.123333335 -0.0257179681 0
0.119999997 -0.0257179681 0
0.116666667 -0.0257179681 0
0.113333337 -0.0257179681 0
0.109999999 -0.0257179681 0
0.106666669 -0.0257179681 0
0.103333332 -0.0257179681 0
0.100000001 -0.0257179681 0
0.0966666639 -0.0257179681 0
0.0933333337 -0.0257179681 0
0.0900000036 -0.0257179681 0
0.086666666 -0.0257179681 0
0.0833333358 -0.0257179681 0
0.0799999982 -0.0257179681 0
0.0766666681 -0.0257179681 0
0.0733333305 -0.0257179681 0
0.0700000003 -0.0257179681 0
0.0666666701 -0.0257179681 0
0.0633333325 -0.0257179681 0
0.0599999987 -0.0257179681 0
0.0566666685 -0.0257179681 0
0.0533333346 -0.0257179681 0
0.0500000007 -0.0257179681 0
0.0466666669 -0.0257179681 0
0.043333333 -0.0257179681 0
0.0399999991 -0.0257179681 0
0.138333336 -0.0286047198 0
0.135000005 -0.0286047198 0
0.13166666 -0.0286047198 0
0.12833333 -0.0286047198 0
0.125 -0.0286047198 0
0.12166667 -0.0286047198 0
0.118333332 -0.0286047198 0
0.115000002 -0.0286047198 0
0.111666664 -0.0286047198 0
0.108333334 -0.0286047198 0
0.104999997 -0.0286047198 0
0.101666667 -0.0286047198 0
0.0983333364 -0.0286047198 0
0.0949999988 -0.0286047198 0
0.0916666687 -0.0286047198 0
0.088333331 -0.0286047198 0
0.0850000009 -0.0286047198 0
0.0816666633 -0.0286047198 0
0.0783333331 -0.0286047198 0
0.075000003 -0.0286047198 0
0.0716666654 -0.0286047198 0
0.0683333352 -0.0286047198 0
0.0649999976 -0.0286047198 0
0.0616666675 -0.0286047198 0
0.0583333336 -0.0286047198 0
0.0549999997 -0.0286047198 0
0.0516666658 -0.0286047198 0
0.0483333319 -0.0286047198 0
0.0450000018 -0.0286047198 0
0.0416666679 -0.0286047198 0
0.038333334 -0.0286047198 0
0.13666667 -0.0314914696 0
0.13333334 -0.0314914696 0
0.129999995 -0.0314914696 0
0.126666665 -0.0314914696 0
0.123333335 -0.0314914696 0
0.119999997 -0.0314914696 0
0.116666667 -0.0314914696 0
0.113333337 -0.0314914696 0
0.109999999 -0.0314914696 0
0.106666669 -0.0314914696 0
0.103333332 -0.0314914696 0
0.100000001 -0.0314914696 0
0.0966666639 -0.0314914696 0
0.0933333337 -0.0314914696 0
0.0900000036 -0.0314914696 0
0.086666666 -0.0314914696 0
0.0833333358 -0.0314914696 0
0.0799999982 -0.0314914696 0
0.0766666681 -0.0314914696 0
0.0733333305 -0.0314914696 0
0.0700000003 -0.0314914696 0
0.0666666701 -0.0314914696 0
0.0633333325 -0.0314914696 0
0.0599999987 -0.0314914696 0
0.0566666685 -0.0314914696 0
0.0533333346 -0.0314914696 0
0.0500000007 -0.0314914696 0
0.0466666669 -0.0314914696 0
0.043333333 -0.0314914696 0
0.0399999991 -0.0314914696 0
0.0366666652 -0.0314914696 0
0.135000005 -0.0343782231 0
0.13166666 -0.0343782231 0
0.12833333 -0.0343782231 0
0.125 -0.0343782231 0
0.12166667 -0.0343782231 0
0.118333332 -0.0343782231 0
0.115000002 -0.0343782231 0
0.111666664 -0.0343782231 0
0.108333334 -0.0343782231 0
0.104999997 -0.0343782231 0
0.101666667 -0.0343782231 0
0.0983333364 -0.0343782231 0
0.0949999988 -0.0343782231 0
0.0916666687 -0.0343782231 0
0.088333331 -0.0343782231 0
0.0850000009 -0.0343782231 0
0.0816666633 -0.0343782231 0
0.0783333331 -0.0343782231 0
0.075000003 -0.0343782231 0
0.0716666654 -0.0343782231 0
0.0683333352 -0.0343782231 0
0.0649999976 -0.0343782231 0
0.0616666675 -0.0343782231 0
0.0583333336 -0.0343782231 0
0.0549999997 -0.0343782231 0
0.0516666658 -0.0343782231 0
0.0483333319 -0.0343782231 0
0.0450000018 -0.0343782231 0
0.0416666679 -0.0343782231 0
0.038333334 -0.0343782231 0
0.0350000001 -0.0343782231 0
0.13333334 -0.0372649729 0
0.129999995 -0.0372649729 0
0.126666665 -0.0372649729 0
0.123333335 -0.0372649729 0
0.119999997 -0.0372649729 0
0.116666667 -0.0372649729 0
0.113333337 -0.0372649729 0
0.109999999 -0.0372649729 0
0.106666669 -0.0372649729 0
0.103333332 -0.0372649729 0
0.100000001 -0.0372649729 0
0.0966666639 -0.0372649729 0
0.0933333337 -0.0372649729 0
0.0900000036 -0.0372649729 0
0.086666666 -0.0372649729 0
0.0833333358 -0.0372649729 0
0.0799999982 -0.0372649729 0
0.0766666681 -0.0372649729 0
0.0733333305 -0.0372649729 0
0.0700000003 -0.0372649729 0
0.0666666701 -0.0372649729 0
0.0633333325 -0.0372649729 0
0.0599999987 -0.0372649729 0
0.0566666685 -0.0372649729 0
0.0533333346 -0.0372649729 0
0.0500000007 -0.0372649729 0
0.0466666669 -0.0372649729 0
0.043333333 -0.0372649729 0
0.0399999991 -0.0372649729 0
0.0366666652 -0.0372649729 0
0.0333333351 -0.0372649729 0
0.13166666 -0.0401517227 0
0.12833333 -0.0401517227 0
0.125 -0.0401517227 0
0.12166667 -0.0401517227 0
0.118333332 -0.0401517227 0
0.115000002 -0.0401517227 0
0.111666664 -0.0401517227 0
[...]
POINT_DATA 961
SCALARS Temp float 1
LOOKUP_TABLE default
380.77102075651516
331.45601424196536
291.5033032413945
261.48017835080924
240.1830998269818
225.89920310580283
216.82683348215085
211.3592207136386
208.2250046439647
206.5114824323679
205.61544211530517
205.16595941478056
204.9490406517815
204.84805521430812
204.80259731466043
204.78280426954763
204.77459279071374
204.77179628348875
204.77250975974857
204.77820747909553
204.79558854243922
204.84252112735746
204.96129294921414
205.2441858770978
205.87681870202223
207.2013042013423
209.7908781935935
214.51110256032612
222.52880699344374
235.23940946526136
254.39454730400232
331.4560297891669
284.3837584677106
248.0594023445107
221.4594600680109
203.03591536280467
190.95505380642777
183.4437991032128
179.00649471036002
176.50966503807302
175.1678042797161
174.47707301141804
174.1355338631783
173.97286591414647
173.89804674077382
173.86475345533785
173.85046988959556
173.8448114328973
173.8435795638384
173.84634794239142
173.85676959023132
173.88617421409847
173.96269211932187
174.15004483802255
174.581524972549
175.51367029775002
177.39758873341208
180.95200530950135
187.20444862303123
197.4570612686977
213.15549131271285
235.2394287537776
291.50325984246024
248.05938366878385
215.08034773066828
191.31722412159957
175.0772432418662
164.54634284049976
158.0584474299391
154.25371343177218
152.12501297306403
150.98590058131154
150.4013435077813
150.11290838794474
149.97571292012236
149.9126609772031
149.88464057799038
149.8727161150197
149.86830522815345
149.86834603325346
149.8737578960185
149.89087966116224
149.93703177956976
150.05315722002993
150.32825945187903
150.94093519913903
152.2203126101797
154.7192976690921
159.27696949901045
167.02991509696375
179.3250271968822
197.45705175337525
222.5288160809514
261.4801274965446
221.4594351898126
191.31722667585976
169.72686689401678
155.02762973092644
145.51341065438424
139.65319973439668
136.21304870586704
134.2845658267743
133.2499084317235
132.71735104840405
132.45372606645165
132.32791979731834
132.26992577730368
132.2441179676415
132.23324608923951
132.22965244722974
132.23112295915305
132.2400733448631
132.26613546346883
132.333805519052
132.4985812353732
132.8764022464359
133.6907251592713
135.3366374184577
138.4500377152376
143.95361209041684
153.03720941088125
167.02992937692974
187.20446137197905
214.51109418460163
240.18305744352062
203.03589527846916
175.07723379059652
155.027683386223
141.34216220149298
132.45241037281906
126.9540119497828
123.71194048212345
121.88640835972323
120.90276382265057
120.39441189610538
120.1418303353571
120.02089084771265
119.96499108288268
119.94011145523262
119.92980309006897
119.92697730920489
119.93023375009736
119.9437090086789
119.98082377274258
120.0739368669298
120.29352835299342
120.78138297435622
121.80065004191128
123.79934397548605
127.47184971772917
133.78829731413856
143.9536059758698
159.27696538335445
180.9520031566936
209.79088436824728
225.89916313808706
190.95508278723145
164.54638124155085
145.5133830427973
132.4523999832906
123.92339612495381
118.62183527979997
115.48164688009766
113.70635970722282
112.74642052481525
112.24881775793627
112.00093679905412
111.88199496953987
111.82694491082708
111.80249352526333
111.79260941919559
111.79065418955379
111.79609401632015
111.81496160749674
111.8646858624356
111.9854653001597
112.26173197840001
112.85755138965614
114.06735159606745
116.37643578082984
120.51432818094096
127.471847468564
138.45003888537175
154.71930456920774
177.39756858675514
207.20129705111643
216.82683929037879
183.44381804572762
158.05848754211598
139.65316741081608
126.95400023494734
118.62183268318681
113.42175934568004
110.3313983812543
108.57948592489747
107.63007388209616
107.13704145705938
106.8910828106636
106.77293731307898
106.71824182128309
106.6940434963707
106.68457854251317
106.68363458961487
106.69158502232882
106.7164024964802
106.77939305270397
106.92785006559683
107.25793477442258
107.95093266297843
109.32313426654343
111.88269972784688
116.37643298765552
123.79933777889784
135.33662813776516
152.2203102041719
175.51366787023943
205.87682766599852
211.35923434751615
179.00651873968837
154.2536624343486
136.21302126056744
123.71193851279479
115.48165442565187
110.33139673112544
107.26429274429229
105.52278562915639
104.57786179256651
104.08669784063484
103.8415001144696
103.7236705791556
103.66914662775592
103.6451543185243
103.63614277572344
103.63631979949523
103.64695436611889
103.67784098189837
103.75370320865646
103.9276571102811
104.30474994596969
105.07815853839672
106.57761706636735
109.32313293128351
114.06734980533936
121.80065112147517
133.69072608834054
150.94092172070262
174.5815061868685
205.24417611777596
208.2250107050814
176.50969664135283
152.124968616468
134.2845486654273
121.88640961570852
113.70635288833672
108.57948471027296
105.52278985616167
103.78573774004775
102.84265586858733
102.35223126318328
102.10732885750008
101.98963236351432
101.93521795151237
101.91142654234119
101.90289802505937
101.9042377571491
101.91753270889708
101.95414351129212
102.0415340788128
102.2371455179488
102.65207566673186
103.48678904318638
105.0781597426468
107.95093272679131
112.85755055962275
120.78138176483218
132.8763983437302
150.32826305015865
174.15005118596056
204.9613115432378
206.5115157165266
175.16774077369888
150.98587912400475
133.24990574261093
120.90277508088904
112.74641980991109
107.6300777404495
104.57786109937986
102.84265526103356
101.9003041070433
101.41016670363481
101.16538112381211
101.04775275696413
100.99342992806439
100.96984167977492
100.96179965867829
100.96426150538672
100.9800002876451
101.02160582423106
101.11853936023803
101.33114357118704
101.7741990259953
102.65207487866236
104.30474964860389
107.25793466932043
112.26173167057689
120.29352842126919
132.49856593254597
150.05314327297492
173.96267566094272
204.84251232285118
205.61549947134736
174.4770240785685
150.40133275653497
132.71735612909646
120.39440412916758
112.24881909384945
107.13704689520891
104.08669796460545
102.35223221244678
101.41016664972408
100.92014158760736
100.67540880853686
100.5578287144163
100.50359336409333
100.48020506630661
100.47262213986517
100.47609095161063
100.49391220099366
100.53955534337712
100.64380162525465
100.86874422547224
101.33114424265042
102.2371457703975
103.92765635979407
106.92784880126398
111.98546417498052
120.07393417788617
132.33380397904878
149.93703659002497
173.8861826606063
204.7955752530351
205.16590085634573
174.13550278644334
150.1129072742707
132.45373798804536
120.14182378107587
112.00093987077494
106.89107998399525
103.84150066461147
102.10732717408128
101.16538113926916
100.67540925488174
100.43071281314211
100.31317921628681
100.25903169551896
100.23583215833348
100.22865567657045
100.23296633847963
100.2524361328435
100.30110782749956
100.41055149602586
100.64380210257325
101.11853973783509
102.04153374665907
103.7537046954579
106.77939549312813
111.86469080585175
119.98081979879814
132.2661302916111
149.89088068942644
173.85677113489353
204.77822138373375
204.9490145494248
173.9728621860852
149.97573045225772
132.32790909422627
120.02089286553303
111.88200449145764
106.77293671439186
103.72367309205622
101.98963151055162
101.04775324383353
100.5578284561454
100.31317907478869
100.19570435761881
100.1416508816012
100.11862589784685
100.11179079775476
100.11676063965508
100.1374465830875
100.18823093395963
100.3011075033508
100.53955523078267
101.0216063594046
101.95414224848669
103.67784047105255
106.71640150773163
111.81495986091636
119.94370758850681
132.24007191017716
149.8737640910473
173.84632553799133
204.77251328238515
204.8480343947097
173.8980465660291
149.9126834075346
132.26991566736723
119.96499426616714
111.8269394976609
106.71824208797443
103.66914479222471
101.93521742127083
100.99343069074706
100.5035930318157
100.25903166893701
100.14165084968971
100.0877124841412
100.06485531214773
100.05830039589377
100.06375986206312
100.08528674190305
100.13744653719812
100.25243621660466
100.49391214287259
100.98000061798744
101.91753259475102
103.64695577011649
106.69158770542585
111.79609156087841
119.93023030784741
132.23111861015119
149.86834701324221
173.84358330050364
204.7717956989941
204.80259707751287
173.86477260960922
149.88462813347368
132.2441185254062
119.94012416489201
111.80249212796919
106.69404773469607
103.6451538429999
101.91142650200358
100.96984151838555
100.48020504914562
100.2358322582731
100.11862586622334
100.06485534156852
100.04218135216766
100.0358654089517
100.04168053522217
100.06375983591231
100.11676056441782
100.23296622206644
100.47609097057267
100.96426127084887
101.90423658317643
103.63631930285734
106.68363345829854
111.79065343625022
119.92697663413465
132.22965212458422
149.86829052873006
173.84480774675012
204.7745847972368
204.78280475741892
173.85049151741188
149.87270401310445
132.23324862352268
119.92979380016875
111.79260910974146
106.68457492235817
103.63614291219795
101.90289861827799
100.96179946770783
100.47262218766197
100.22865543008487
100.11179080426514
100.05830035002766
100.03586540928676
100.02978129666926
100.03586542063172
100.05830036722908
100.11179088429233
100.22865553962868
100.47262204925413
100.96180003808098
101.90289800182222
103.63614438174882
106.68457700265833
111.79260727105344
119.92980102689184
132.23324213557916
149.87272058055814
173.85046057755017
204.78280667868253
204.77461363222997
173.8447881957458
149.86831123891432
132.22966908554073
119.92697432744174
111.79066028768837
106.6836335992034
103.636321102343
101.90423657534649
100.96426188427697
100.47609136338983
100.23296621176162
100.1167607433665
100.06375984831307
100.04168054628475
100.03586542944687
100.04218137075561
100.06485528556667
100.11862589521073
100.2358320826401
100.48020474710303
100.96984150557003
101.91142545655245
103.64515364035022
106.69404327533495
111.80249326311656
119.94011184645599
132.244102228584
149.88463788879807
173.86473752175442
204.80258915311256
204.77182759922695
173.84356196512994
149.86835587009
132.2311072771427
119.93023271984572
111.79608775534449
106.69158498804855
103.64695675460389
101.91753148672971
100.98000086982103
100.49391191651084
100.25243605145428
100.13744649861593
100.08528671538427
100.06375988224121
100.058300402855
100.0648553189939
100.08771252038146
100.14165089802599
100.25903159131258
100.50359330393815
100.9934303117133
101.93521814854331
103.6691458000042
106.7182406302932
111.82694337932163
119.96498837382964
132.26992447312972
149.91265306036948
173.89803812607252
204.84805629111258
204.77247718011856
173.84633793362426
149.87377408668854
132.24005846198557
119.9437111586769
111.81495564290083
106.71640193866574
103.67783890632364
101.95414256201957
101.02160667323939
100.53955497232079
100.30110774696699
100.18823088745157
100.13744655445814
100.11676063555288
100.11179079451254
100.11862587892726
100.1416509135832
100.19570430952548
100.31317901787496
100.55782863264902
101.04775305623734
101.98963208665539
103.72367169521134
106.77293947822587
111.8819996760099
120.02088645947887
132.3279221007452
149.97571253645827
173.97286587910546
204.94905067484245
204.7782002797712
173.85678189479236
149.89086317348523
132.26613293112268
119.98081330068894
111.86468617618223
106.77939707654328
103.75370272577314
102.0415342254572
101.11853931738663
100.64380178891416
100.41055141748281
100.30110776681119
100.25243618443243
100.23296635552626
100.2286556792659
100.23583217260482
100.25903171341324
100.31317917188811
100.43071293540073
100.67540903163653
101.16538147287265
102.10732759117336
103.8414995747106
106.8910818456138
112.00093525133641
120.1418287380527
132.45371490176882
150.11290099620652
174.13552472455268
205.1659600194917
204.79558422142003
173.88619182830737
149.9370159825681
132.33380826064777
120.07392736812243
111.985464862702
106.92784612759132
103.92765696604535
102.2371463823111
101.33114376861012
100.8687447204114
100.64380156073618
100.5395552922494
100.49391218540829
100.47609092512135
100.4726221421938
100.48020510113744
100.50359333184953
100.557828695958
100.67540888654322
100.92014146124134
101.41016690214295
102.3522313164064
104.08669940690399
107.13704366061128
112.24881488475836
120.39441331138276
132.71734580304997
150.40134310687762
174.47707314135857
205.61543893318978
204.8425175260598
173.9626484547211
150.05314605432264
132.4985561155183
120.29352138110399
112.26173430327302
107.25793148687956
104.30475056492939
102.65207417697897
101.77419848213464
101.33114342520814
101.11853922745786
101.02160593641291
100.98000035791439
100.96426151553908
100.96179966282273
100.9698416799977
100.99342990118684
101.04775281328347
101.16538100822208
101.41016688174548
101.90030427636188
102.84265463034684
104.5778621823406
107.63007511476825
112.74642395246185
120.90276166561776
133.24990717715232
150.98590865717418
175.16781532786067
206.5114993044948
204.9613389192341
174.15004178724104
150.32828292776114
132.87639888439162
120.78139041657657
112.85755155284077
107.95093756459923
105.07816365272417
103.48679045732523
102.65207853053296
102.23714724788287
102.0415357044276
101.95414514085869
101.9175342737216
101.90423942922857
101.90289974878668
101.91142813827518
101.93521960885671
101.98963401061226
102.10733032167857
102.3522328326868
102.84265662916464
103.785739464783
105.52278836211867
108.57948208473114
113.70635801347422
121.88640149310415
134.28455521638855
152.1250053833062
176.50963712798074
208.2249869402101
205.2441689694938
174.58153066954597
150.9409233304832
133.69072734614232
121.80066350760546
114.0673512097345
109.32313934886525
106.57761995000615
105.07816114521437
104.30475290154436
103.92765991036369
103.75370645375408
103.67784420499632
103.64695739853552
103.63632278274666
103.6361457317762
103.64515727524885
103.66914962356064
103.72367347686834
103.84150316825347
104.08670067897572
104.5778641116132
105.52278862939541
107.26429317638811
110.33140079639747
115.48164645932258
123.71193945944863
136.21304070892455
154.25371106532046
179.00648805641245
211.3592185716358
205.87681179646697
175.51368673216098
152.22030561620306
135.3366368906154
123.79933675146327
116.37643892255167
111.88270500443153
109.32313591601141
107.95093699494014
107.25793747025467
106.9278525552315
106.77939552397751
106.71640480036876
106.69158762083912
106.68363732617681
106.68458100336393
106.69404616307827
106.71824442234241
106.77293978254396
106.89108542478007
107.1370437494158
107.63007682174143
108.57948730012477
110.33139989390531
113.42176625527935
118.62183220840959
126.95401081908761
139.65320003250022
158.05844379542663
183.44379635166095
216.82684127729004
207.20130482669717
177.39755320636775
154.71929292126447
138.45004574255924
127.4718415007543
120.5143310948633
116.37643450830602
114.06735049377566
112.85755106399446
112.26173149451924
111.98546575607409
111.86468646746633
111.81496180393006
111.79609408484485
111.79065418414355
111.79260949324761
111.80249363654939
111.8269450182887
111.88199533075571
112.00093687215465
112.24881784582234
112.74642126200378
113.70635935921558
115.4816493597222
118.62183127419037
123.92339905196043
132.4524166808035
145.51342067427177
164.54635547629033
190.95506186379055
225.89916572935547
209.79088272166106
180.95197782625436
159.27696064460943
143.95359043609093
133.78829304739625
127.47184571610434
123.79933533680315
121.80064579748725
120.78137671133113
120.29352176552743
120.07393020805885
119.98081674140646
119.94370259014573
119.93022761722047
119.92697066005776
119.92979687260706
119.94010507744666
119.96498454673139
120.02088449679647
120.14182394116597
120.39440589786031
120.90275703620478
121.88640249722873
123.71193805242663
126.95400515259773
132.45241143343546
141.3421782313284
155.0276395290612
175.07720182392592
203.03587507706834
240.18305863613875
214.5111055065714
187.20447441114933
167.0299630068635
153.03722475057316
143.95363717190708
138.4500561996631
135.33665550679254
133.6907438332597
132.87642042356248
132.4986008585523
132.33382547475185
132.2661546957499
132.24009230726764
132.23114175985424
132.2296714780985
132.23326512169896
132.244137039113
132.26994519475008
132.32793864198987
132.4537450946575
132.71737036515754
133.24992676804405
134.28458522772172
136.21306315465722
139.65321710721057
145.51343458079955
155.02766351027532
169.7268432228061
191.31719480032947
221.45940764931132
261.4801322954423
222.52882621812557
197.45708411690433
179.32504281126253
167.02994171443868
159.27699480072897
154.7193160406887
152.22033604021408
150.9409560039194
150.3282796922153
150.05317723932902
149.93705105859993
149.89089985198987
149.8737785323098
149.86836595790655
149.86832582155955
149.87273642241027
149.88466065207876
149.91268118502236
149.97573317736232
150.11292868689853
150.40136297767054
150.98592089961952
152.12503446257634
154.25373033561138
158.05846761847516
164.54636939008236
175.07721690448076
191.3171973409445
215.08031580130512
248.05935416518227
291.5032598274171
235.23943126019552
213.1555148258036
197.45706424025684
187.20446298285796
180.95201255446713
177.39759579848382
175.51367816561176
174.58153235902395
174.15005437456068
173.96270200123323
173.88618300641116
173.85677806992143
173.8463562093786
173.84358833041145
173.84482009678777
173.85047862811052
173.86476260543074
173.89805509419665
173.97287471162272
174.1355428529934
174.47708131345837
175.16781316290263
176.50967066179226
179.00650249960313
183.4438109254181
190.95507183065254
203.0358832920727
221.45941519064078
248.05934822235884
284.38370570952833
331.4559384968099
254.3945637058892
235.2394040367878
222.5288131700704
214.51110776384792
209.79087553007633
207.20130736282337
205.8768187406938
205.2441865848798
204.9612933624006
204.84251952784552
204.7955884228758
204.77820766818192
204.77250973936938
204.77179674896632
204.77459291223641
204.78280439935907
204.8025968370657
204.84805558437424
204.94904068760945
205.16595874264902
205.6154423744322
206.51148372483172
208.22500284551577
211.35922066188863
216.8268361233306
225.89916081331552
240.18305727308092
261.4801241073687
291.503236842269
331.4559205654525
380.7706099813564
