# vtk DataFile Version 2.0
Unstructured Grid Example
ASCII
DATASET UNSTRUCTURED_GRID

POINTS 961 float
0.150000006 -0.00839745998 0
0.146666661 -0.00839745998 0
0.143333331 -0.00839745998 0
0.140000001 -0.00839745998 0
0.13666667 -0.00839745998 0
0.13333334 -0.00839745998 0
0.129999995 -0.00839745998 0
0.126666665 -0.00839745998 0
0.123333335 -0.00839745998 0
0.119999997 -0.00839745998 0
0.116666667 -0.00839745998 0
0.113333337 -0.00839745998 0
0.109999999 -0.00839745998 0
0.106666669 -0.00839745998 0
0.103333332 -0.00839745998 0
0.100000001 -0.00839745998 0
0.0966666639 -0.00839745998 0
0.0933333337 -0.00839745998 0
0.0900000036 -0.00839745998 0
0.086666666 -0.00839745998 0
0.0833333358 -0.00839745998 0
0.0799999982 -0.00839745998 0
0.0766666681 -0.00839745998 0
0.0733333305 -0.00839745998 0
0.0700000003 -0.00839745998 0
0.0666666701 -0.00839745998 0
0.0633333325 -0.00839745998 0
0.0599999987 -0.00839745998 0
0.0566666685 -0.00839745998 0
0.0533333346 -0.00839745998 0
0.0500000007 -0.00839745998 0
0.148333326 -0.0112842107 0
0.144999996 -0.0112842107 0
0.141666666 -0.0112842107 0
0.138333336 -0.0112842107 0
0.135000005 -0.0112842107 0
0.13166666 -0.0112842107 0
0.12833333 -0.0112842107 0
0.125 -0.0112842107 0
0.12166667 -0.0112842107 0
0.118333332 -0.0112842107 0
0.115000002 -0.0112842107 0
0.111666664 -0.0112842107 0
0.108333334 -0.0112842107 0
0.104999997 -0.0112842107 0
0.101666667 -0.0112842107 0
0.0983333364 -0.0112842107 0
0.0949999988 -0.0112842107 0
0.0916666687 -0.0112842107 0
0.088333331 -0.0112842107 0
0.0850000009 -0.0112842107 0
0.0816666633 -0.0112842107 0
0.0783333331 -0.0112842107 0
0.075000003 -0.0112842107 0
0.0716666654 -0.0112842107 0
0.0683333352 -0.0112842107 0
0.0649999976 -0.0112842107 0
0.0616666675 -0.0112842107 0
0.0583333336 -0.0112842107 0
0.0549999997 -0.0112842107 0
0.0516666658 -0.0112842107 0
0.0483333319 -0.0112842107 0
0.146666661 -0.0141709624 0
0.143333331 -0.0141709624 0
0.140000001 -0.0141709624 0
0.13666667 -0.0141709624 0
0.13333334 -0.0141709624 0
0.129999995 -0.0141709624 0
0.126666665 -0.0141709624 0
0.123333335 -0.0141709624 0
0.119999997 -0.0141709624 0
0.116666667 -0.0141709624 0
0.113333337 -0.0141709624 0
0.109999999 -0.0141709624 0
0.106666669 -0.0141709624 0
0.103333332 -0.0141709624 0
0.100000001 -0.0141709624 0
0.0966666639 -0.0141709624 0
0.0933333337 -0.0141709624 0
0.0900000036 -0.0141709624 0
0.086666666 -0.0141709624 0
0.0833333358 -0.0141709624 0
0.0799999982 -0.0141709624 0
0.0766666681 -0.0141709624 0
0.0733333305 -0.0141709624 0
0.0700000003 -0.0141709624 0
0.0666666701 -0.0141709624 0
0.0633333325 -0.0141709624 0
0.0599999987 -0.0141709624 0
0.0566666685 -0.0141709624 0
0.0533333346 -0.0141709624 0
0.0500000007 -0.0141709624 0
0.0466666669 -0.0141709624 0
0.144999996 -0.0170577131 0
0.141666666 -0.0170577131 0
0.138333336 -0.0170577131 0
0.135000005 -0.0170577131 0
0.13166666 -0.0170577131 0
0.12833333 -0.0170577131 0
0.125 -0.0170577131 0
0.12166667 -0.0170577131 0
0.118333332 -0.0170577131 0
0.115000002 -0.0170577131 0
0.111666664 -0.0170577131 0
0.108333334 -0.0170577131 0
0.104999997 -0.0170577131 0
0.101666667 -0.0170577131 0
0.0983333364 -0.0170577131 0
0.0949999988 -0.0170577131 0
0.0916666687 -0.0170577131 0
0.088333331 -0.0170577131 0
0.0850000009 -0.0170577131 0
0.0816666633 -0.0170577131 0
0.0783333331 -0.0170577131 0
0.075000003 -0.0170577131 0
0.0716666654 -0.0170577131 0
0.0683333352 -0.0170577131 0
0.0649999976 -0.0170577131 0
0.0616666675 -0.0170577131 0
0.0583333336 -0.0170577131 0
0.0549999997 -0.0170577131 0
0.0516666658 -0.0170577131 0
0.0483333319 -0.0170577131 0
0.0450000018 -0.0170577131 0
0.143333331 -0.0199444648 0
0.140000001 -0.0199444648 0
0.13666667 -0.0199444648 0
0.13333334 -0.0199444648 0
0.129999995 -0.0199444648 0
0.126666665 -0.0199444648 0
0.123333335 -0.0199444648 0
0.119999997 -0.0199444648 0
0.116666667 -0.0199444648 0
0.113333337 -0.0199444648 0
0.109999999 -0.0199444648 0
0.106666669 -0.0199444648 0
0.103333332 -0.0199444648 0
0.100000001 -0.0199444648 0
0.0966666639 -0.0199444648 0
0.0933333337 -0.0199444648 0
0.0900000036 -0.0199444648 0
0.086666666 -0.0199444648 0
0.0833333358 -0.0199444648 0
0.0799999982 -0.0199444648 0
0.0766666681 -0.0199444648 0
0.0733333305 -0.0199444648 0
0.0700000003 -0.0199444648 0
0.0666666701 -0.0199444648 0
0.0633333325 -0.0199444648 0
0.0599999987 -0.0199444648 0
0.0566666685 -0.0199444648 0
0.0533333346 -0.0199444648 0
0.0500000007 -0.0199444648 0
0.0466666669 -0.0199444648 0
0.043333333 -0.0199444648 0
0.141666666 -0.0228312165 0
0.138333336 -0.0228312165 0
0.135000005 -0.0228312165 0
0.13166666 -0.0228312165 0
0.12833333 -0.0228312165 0
0.125 -0.0228312165 0
0.12166667 -0.0228312165 0
0.118333332 -0.0228312165 0
0.115000002 -0.0228312165 0
0.111666664 -0.0228312165 0
0.108333334 -0.0228312165 0
0.104999997 -0.0228312165 0
0.101666667 -0.0228312165 0
0.0983333364 -0.0228312165 0
0.0949999988 -0.0228312165 0
0.0916666687 -0.0228312165 0
0.088333331 -0.0228312165 0
0.0850000009 -0.0228312165 0
0.0816666633 -0.0228312165 0
0.0783333331 -0.0228312165 0
0.075000003 -0.0228312165 0
0.0716666654 -0.0228312165 0
0.0683333352 -0.0228312165 0
0.0649999976 -0.0228312165 0
0.0616666675 -0.0228312165 0
0.0583333336 -0.0228312165 0
0.0549999997 -0.0228312165 0
0.0516666658 -0.0228312165 0
0.0483333319 -0.0228312165 0
0.0450000018 -0.0228312165 0
0.0416666679 -0.0228312165 0
0.140000001 -0.0257179681 0
0.13666667 -0.0257179681 0
0.13333334 -0.0257179681 0
0.129999995 -0.0257179681 0
0.126666665 -0.0257179681 0
0.123333335 -0.0257179681 0
0.119999997 -0.0257179681 0
0.116666667 -0.0257179681 0
0.113333337 -0.0257179681 0
0.109999999 -0.0257179681 0
0.106666669 -0.0257179681 0
0.103333332 -0.0257179681 0
0.100000001 -0.0257179681 0
0.0966666639 -0.0257179681 0
0.0933333337 -0.0257179681 0
0.0900000036 -0.0257179681 0
0.086666666 -0.0257179681 0
0.0833333358 -0.0257179681 0
0.0799999982 -0.0257179681 0
0.0766666681 -0.0257179681 0
0.0733333305 -0.0257179681 0
0.0700000003 -0.0257179681 0
0.0666666701 -0.0257179681 0
0.0633333325 -0.0257179681 0
0.0599999987 -0.0257179681 0
0.0566666685 -0.0257179681 0
0.0533333346 -0.0257179681 0
0.0500000007 -0.0257179681 0
0.0466666669 -0.0257179681 0
0.043333333 -0.0257179681 0
0.0399999991 -0.0257179681 0
0.138333336 -0.0286047198 0
0.135000005 -0.0286047198 0
0.13166666 -0.0286047198 0
0.12833333 -0.0286047198 0
0.125 -0.0286047198 0
0.12166667 -0.0286047198 0
0.118333332 -0.0286047198 0
0.115000002 -0.0286047198 0
0.111666664 -0.0286047198 0
0.108333334 -0.0286047198 0
0.104999997 -0.0286047198 0
0.101666667 -0.0286047198 0
0.0983333364 -0.0286047198 0
0.0949999988 -0.0286047198 0
0.0916666687 -0.0286047198 0
0.088333331 -0.0286047198 0
0.0850000009 -0.0286047198 0
0.0816666633 -0.0286047198 0
0.0783333331 -0.0286047198 0
0.075000003 -0.0286047198 0
0.0716666654 -0.0286047198 0
0.0683333352 -0.0286047198 0
0.0649999976 -0.0286047198 0
0.0616666675 -0.0286047198 0
0.0583333336 -0.0286047198 0
0.0549999997 -0.0286047198 0
0.0516666658 -0.0286047198 0
0.0483333319 -0.0286047198 0
0.0450000018 -0.0286047198 0
0.0416666679 -0.0286047198 0
0.038333334 -0.0286047198 0
0.13666667 -0.0314914696 0
0.13333334 -0.0314914696 0
0.129999995 -0.0314914696 0
0.126666665 -0.0314914696 0
0.123333335 -0.0314914696 0
0.119999997 -0.0314914696 0
0.116666667 -0.0314914696 0
0.113333337 -0.0314914696 0
0.109999999 -0.0314914696 0
0.106666669 -0.0314914696 0
0.103333332 -0.0314914696 0
0.100000001 -0.0314914696 0
0.0966666639 -0.0314914696 0
0.0933333337 -0.0314914696 0
0.0900000036 -0.0314914696 0
0.086666666 -0.0314914696 0
0.0833333358 -0.0314914696 0
0.0799999982 -0.0314914696 0
0.0766666681 -0.0314914696 0
0.0733333305 -0.0314914696 0
0.0700000003 -0.0314914696 0
0.0666666701 -0.0314914696 0
0.0633333325 -0.0314914696 0
0.0599999987 -0.0314914696 0
0.0566666685 -0.0314914696 0
0.0533333346 -0.0314914696 0
0.0500000007 -0.0314914696 0
0.0466666669 -0.0314914696 0
0.043333333 -0.0314914696 0
0.0399999991 -0.0314914696 0
0.0366666652 -0.0314914696 0
0.135000005 -0.0343782231 0
0.13166666 -0.0343782231 0
0.12833333 -0.0343782231 0
0.125 -0.0343782231 0
0.12166667 -0.0343782231 0
0.118333332 -0.0343782231 0
0.115000002 -0.0343782231 0
0.111666664 -0.0343782231 0
0.108333334 -0.0343782231 0
0.104999997 -0.0343782231 0
0.101666667 -0.0343782231 0
0.0983333364 -0.0343782231 0
0.0949999988 -0.0343782231 0
0.0916666687 -0.0343782231 0
0.088333331 -0.0343782231 0
0.0850000009 -0.0343782231 0
0.0816666633 -0.0343782231 0
0.0783333331 -0.0343782231 0
0.075000003 -0.0343782231 0
0.0716666654 -0.0343782231 0
0.0683333352 -0.0343782231 0
0.0649999976 -0.0343782231 0
0.0616666675 -0.0343782231 0
0.0583333336 -0.0343782231 0
0.0549999997 -0.0343782231 0
0.0516666658 -0.0343782231 0
0.0483333319 -0.0343782231 0
0.0450000018 -0.0343782231 0
0.0416666679 -0.0343782231 0
0.038333334 -0.0343782231 0
0.0350000001 -0.0343782231 0
0.13333334 -0.0372649729 0
0.129999995 -0.0372649729 0
0.126666665 -0.0372649729 0
0.123333335 -0.0372649729 0
0.119999997 -0.0372649729 0
0.116666667 -0.0372649729 0
0.113333337 -0.0372649729 0
0.109999999 -0.0372649729 0
0.106666669 -0.0372649729 0
0.103333332 -0.0372649729 0
0.100000001 -0.0372649729 0
0.0966666639 -0.0372649729 0
0.0933333337 -0.0372649729 0
0.0900000036 -0.0372649729 0
0.086666666 -0.0372649729 0
0.0833333358 -0.0372649729 0
0.0799999982 -0.0372649729 0
0.0766666681 -0.0372649729 0
0.0733333305 -0.0372649729 0
0.0700000003 -0.0372649729 0
0.0666666701 -0.0372649729 0
0.0633333325 -0.0372649729 0
0.0599999987 -0.0372649729 0
0.0566666685 -0.0372649729 0
0.0533333346 -0.0372649729 0
0.0500000007 -0.0372649729 0
0.0466666669 -0.0372649729 0
0.043333333 -0.0372649729 0
0.0399999991 -0.0372649729 0
0.0366666652 -0.0372649729 0
0.0333333351 -0.0372649729 0
0.13166666 -0.0401517227 0
0.12833333 -0.0401517227 0
0.125 -0.0401517227 0
0.12166667 -0.0401517227 0
0.118333332 -0.0401517227 0
0.115000002 -0.0401517227 0
0.111666664 -0.0401517227 0
[...]
POINT_DATA 961
SCALARS Temp float 1
LOOKUP_TABLE default
349.73099841677356
299.91351613407164
261.27809499943714
234.0261437496719
216.1590536755904
205.23416347129475
198.98096703663336
195.61592766292617
193.9052874702797
193.0797605043566
192.69976698356658
192.53218312609673
192.4610804364385
192.431951708886
192.42039358419566
192.41594123518001
192.41429271429752
192.41377540888482
192.41391490366175
192.4151046552331
192.41935181355322
192.43303440031434
192.47444742865648
192.59205787596807
192.90359123656833
193.6685927135592
195.40002675763202
198.9944750514478
205.81730242986367
217.6547880060762
236.8022156413045
299.9135324123296
253.04505956960662
218.80330825334008
195.4071653948718
180.50441156235362
171.63080873065698
166.67355681499217
164.06378027992236
162.76288813151444
162.14597250786667
161.86637071263831
161.74474210102952
161.69376401942637
161.67310636638513
161.66498941909984
161.6619005370066
161.66079685974736
161.66057181794625
161.66112461223736
161.6634876686844
161.67137180795928
161.6958494021134
161.76729674253605
161.9624744704208
162.45858810968213
163.62517934261007
166.1496634887036
171.1563452578494
180.2337213377076
195.28266796432274
217.65480677697056
261.27805469965335
218.80329230190935
188.31912756038645
167.84120003187138
154.96567437177788
147.37421709952568
143.16345011802002
140.95745726688557
139.86116534101816
139.34210320450705
139.10697101078517
139.00465974314574
138.96174425249012
138.94433510588794
138.9374898135271
138.93489316886632
138.93401418879387
138.93402400946616
138.9351732971811
138.93938105894787
138.9528197821826
138.99303190961604
139.10598265893623
139.40234076794016
140.12468281641748
141.7516919929802
145.12286604301025
151.52575132264022
162.64604592710512
180.2337117174302
205.81731030254636
234.02609928244289
195.40714597129963
167.84120418416572
149.3768404338204
137.7719220895566
130.9186823003549
127.1059307261771
125.10069805756264
124.09985010724527
123.62385349816672
123.40727647234631
123.31264404914208
123.27279446729291
123.2565717148359
123.25017876721611
123.24776824675368
123.24702794554935
123.24732726425918
123.24935789146986
123.2562447360253
123.27738401389476
123.33827599758006
123.50269592563292
123.91691767524195
124.88576524584437
126.9801872907779
131.1490506156517
138.76753573715553
151.5257641661497
171.15635754821713
198.99446684533098
216.15902021868132
180.50439815929857
154.96566963483636
137.77196471074046
126.90163256489919
120.44265582664713
116.82772446846236
114.9159411693585
113.95695001591234
113.498838370222
113.28959517647272
113.19786336490176
113.15912568581834
113.14332007477091
113.13708631816831
113.13476385824796
113.13416311336432
113.13486290440198
113.13811381604218
113.14854911757
113.17935721874963
113.26473571335119
113.48639864197162
114.02326381150874
115.23125434962076
117.7472470330148
122.58386715195051
131.14904522070776
145.12286246584208
166.14966097330225
195.40003315840542
205.2341335013477
171.63083229311334
147.3742481494838
130.91865802665217
120.44264700273798
114.18036553084207
110.65772888391005
108.78695371557573
107.84533000301198
107.39426868688683
107.18778646625368
107.09710121388136
107.05875005431417
107.04308747667226
107.03691769616042
107.03466396905384
107.03423723393193
107.03546543785762
107.04026547951061
107.05497133997142
107.09675564632333
107.20824783282309
107.48704240926239
108.138101597974
109.55334479151311
112.40911102628567
117.74724542752384
126.98018831984236
141.7516986604828
163.625160267207
193.66858477428713
198.98097008172445
166.67357234791376
143.1634849493746
127.10590206809377
116.82771484718047
110.65772702073419
107.17578542802381
105.32209615593014
104.38733606407963
103.93893091574624
103.73344406836242
103.6431217018177
103.60490137018255
103.58928923023564
103.58315557968221
103.58097638352535
103.58076880514672
103.5826416290704
103.58923546111471
103.60860724320779
103.66165703259621
103.79824333823096
104.1282906587371
104.87478578941443
106.45126775544514
109.55334277936181
115.23124954430874
124.88575773533191
140.12467987599095
162.45858546652445
192.90360039097484
195.61593928259944
164.06380119052906
140.95741028729097
125.1006743092378
114.91593851069257
108.78695885287475
105.32209512172439
103.47520306605534
102.54304135971219
102.09559955699788
101.89045824109931
101.80025788661317
101.76208159091826
101.74649184090357
101.7403903837171
101.73829854971747
101.73834803779272
101.7409410526326
101.7494263270815
101.77342262087659
101.83693282767737
101.99528552156049
102.36677865650427
103.18515362238136
104.87478494491418
108.13810054933872
114.02326442971322
123.9169183478078
139.40232844764174
161.96245617442577
192.59204821516528
193.90529116129207
162.7629171129983
139.86112207151365
124.09983411169515
113.95695058292979
107.84532529461843
104.38733549411948
102.54304375360584
101.61183179023752
101.1647270987751
100.9597022979685
100.86954234236651
100.8313821066435
100.81580707848015
100.80973990086315
100.8077469193824
100.8080741805148
100.81140239704823
100.82170379921688
100.84986160724104
100.92217122011452
101.09760684756749
101.49941363131475
102.36677937510488
104.12829052233349
107.48704160566425
113.48639766223829
123.50269237322522
139.10598602049302
161.76730262035736
192.47446572540045
193.07978996811082
162.14590956766088
139.34208314139275
123.62385130676314
113.49884795192186
107.39426828883126
103.93893352259336
102.09559933442549
101.16472684377949
100.71773608850202
100.51275037746471
100.42260412617009
100.38445186394807
100.3688904437257
100.36286012928379
100.36097062813515
100.36157313297689
100.36558681565757
100.37747638477622
100.40903890180823
100.48807017170957
100.67567460389995
101.09760642929439
101.99528529547428
103.7982433163851
107.20824768082899
113.26473593223506
123.33826279154553
138.99301889019682
161.6958334097945
192.43302528994005
192.69982291041734
161.86632324640726
139.10696202589625
123.4072812584931
113.28958972085434
107.18778773637132
103.73344783649654
101.89045829867226
100.95970278540584
100.5127503577238
100.30777775402512
100.21763708048596
100.17949098430236
100.16394348944783
100.15795090257673
100.15616133011123
100.15701381536662
100.16161164445764
100.1747680568314
100.20886809920442
100.2925742670915
100.48807044983373
100.92217135639466
101.83693240214036
103.66165625461522
107.09675476410077
113.17935486557445
123.27738275316383
138.95282412836022
161.67138009745486
192.41933865294848
192.53212701482425
161.74471362896946
139.0046600304655
123.31265544562338
113.19785872122024
107.09710353786383
103.64312001268765
101.80025820949344
100.86954149210942
100.42260414140259
100.21763724558086
100.12750070235862
100.08936107735863
100.07382808151776
100.06787172320297
100.06617127147157
100.06723214549929
100.07228551714515
100.08636541869816
100.12219275885518
100.2088682863815
100.40903906512362
100.84986143269307
101.77342341514402
103.60860873261338
107.05497489015119
113.14854597744859
123.256240282785
138.9393819340662
161.6634889060966
192.41511842470382
192.4610572842469
161.693762712906
138.96176172667927
123.27278629582702
113.15912753527861
107.05875710716505
103.60490095043492
101.76208306782544
100.83138164623128
100.38445207393146
100.17949088624204
100.08936102719107
100.05123030283899
100.03571317649475
100.02979029167909
100.0281639818886
100.02938500975323
100.03476444894427
100.04946115932881
100.08636530946185
100.17476801501019
100.37747661710804
100.82170315164028
101.7494260464067
103.58923484017201
107.04026416944302
113.1381126716398
123.24935661191358
138.935178932294
161.66110262444832
192.41391807663717
192.43193324662684
161.67310760024523
138.94435671137762
123.25656331667628
113.14332248084277
107.04308370832963
103.5892893273582
101.74649079471047
100.81580680159253
100.36889078322152
100.16394335549995
100.07382806672571
100.03571316636503
100.02021625270658
100.01432528187722
100.01275823440581
100.01409403503105
100.01968882545319
100.03476443443911
100.07228554470805
100.16161161694963
100.36558695675349
100.81140233904463
101.74094184952556
103.58264334131513
107.03546368382723
113.13486016869128
123.24732349503914
138.93402463073588
161.6605754804856
192.41377503226462
192.42039418127658
161.66500841966632
138.93747853527142
123.25017899406842
113.13709632085332
107.03691653559909
103.58315832287182
101.74039005304573
100.80973986616617
100.36286005848775
100.15795089068611
100.06787175798057
100.02979028174092
100.01432528954719
100.00846963005245
100.0069514544775
100.00836634990081
100.0140940276239
100.02938498652989
100.06723210469853
100.15701382475554
100.3615730321205
100.80807358828913
101.73834775491422
103.58076803295418
107.03423668705156
113.13416256017686
123.24702763629988
138.93400089096235
161.66079336823034
192.4142851633472
192.41594135542667
161.66192119998118
138.93488137260601
123.24776997256015
113.13475664994937
107.03466358212519
103.58097407899865
101.73829859654137
100.80774721880726
100.36097053019725
100.15616134444616
100.06617118613164
100.02816398273576
100.0127582218191
100.00695145444318
100.00548018066635
100.00695145729047
100.01275822616957
100.02816400849386
100.0661712240832
100.15616129104843
100.36097079523671
100.80774690324651
101.73829946310437
103.58097540432539
107.03466241138847
113.13476235113266
123.2477647742408
138.93489760924223
161.66189174043146
192.41594404939232
192.41431213008894
161.66077356418646
138.93401933154726
123.24704216124448
113.13416056492758
107.0342416022312
103.58076808739783
101.73834873709116
100.80807358335986
100.36157329279384
100.15701397710448
100.06723209834443
100.02938504008202
100.01409403037984
100.00836635258918
100.00695145956325
100.00846963483
100.01432527413246
100.0297902902419
100.06787169555312
100.15795077401083
100.36286004790823
100.80973935540136
101.74038995956036
103.58315547204725
107.03691752519622
113.13708671604972
123.2501654390445
138.93748737744448
161.66497431630592
192.4203854659444
192.41380618453104
161.6605542718216
138.93403284322872
123.24731402578172
113.13486194207599
107.03546099598186
103.5826415440296
101.74094241356516
100.81140175493232
100.36558706675943
100.16161152816237
100.07228548455045
100.03476442364376
100.01968881820699
100.01409404015845
100.0127582365767
100.01432528358812
100.02021626303066
100.03571318112536
100.0738280399531
100.16394346687572
100.36889061200078
100.815807185352
101.74649137162586
103.58928847826608
107.04308643732531
113.14331784922634
123.25657089785302
138.94432775381551
161.67309795262688
192.43195260438463
192.41388299464148
161.66111507049726
138.9351885303877
123.24934494045563
113.1381155226233
107.04026109239956
103.58923503634675
101.74942515949826
100.82170329329209
100.37747676038789
100.17476791196884
100.0863653942434
100.04946114536175
100.03476444096768
100.02938500856979
100.02816398076952
100.0297902871907
100.03571318595749
100.0512302877895
100.08936100908262
100.17949095427421
100.38445199949275
100.83138194725221
101.7620822555008
103.60490275654968
107.05875350636465
113.15912224605432
123.27279631080981
138.96174384405734
161.69376369274613
192.46108989492734
192.41509789783834
161.66349962389876
138.93936597849267
123.25624221634212
113.14854081489693
107.05497145966898
103.608609751719
101.77342224947363
100.84986167590685
100.40903888101977
100.20886815754429
100.12219273416953
100.08636539948428
100.07228553143524
100.06723215365523
100.06617127263512
100.06787172662955
100.07382808645205
100.089361063172
100.12750074672238
100.21763715655526
100.4226042950772
100.86954169044718
101.80025758530229
103.64312104781564
107.09709994928738
113.19786215373237
123.31263423790524
139.0046525408726
161.74473256205124
192.53218335975393
192.41934729421644
161.67138882299406
138.95280454608297
123.2773862960349
113.17934934639125
107.0967551223294
103.66165456150672
101.83693272779571
100.92217167902521
100.48807023712193
100.29257446449398
100.20886808194349
100.17476804138258
100.16161163886687
100.15701380522447
100.1561613316512
100.15795091685833
100.16394347838126
100.17949098121233
100.21763710727521
100.30777770582826
100.51275046755457
100.95970229714668
101.89045907574355
103.73344553868684
107.18778438553393
113.2895960243078
123.40727162392585
139.10697058706967
161.86637062815265
192.69976373783282
192.43302956431845
161.69580635608682
138.99302081526204
123.33825425923887
113.26473021232502
107.2082496069166
103.79824121470834
101.9952858312924
101.09760608662266
100.67567435080562
100.48807011832196
100.40903885004349
100.37747642031923
100.36558685788084
100.361573139409
100.36097062811949
100.36286012860963
100.36889043281984
100.38445188264093
100.42260408580108
100.51275045055561
100.71773614525517
101.16472649806565
102.09559982325821
103.93893163304577
107.39427103893081
113.49883686744826
123.62385245752245
139.34211080277308
162.14598306795227
193.0797774900979
192.47449227051513
161.7672925579616
139.1060040794925
123.50269244238592
113.4864040910749
107.48704214967722
104.12829344989026
102.36678156680397
101.49941435609765
101.09760823676577
100.92217211856592
100.84986243733306
100.82170461998308
100.81140318654641
100.80807502431425
100.80774780061007
100.80974070887271
100.81580793019045
100.83138294608725
100.8695431090894
100.95970310376161
101.16472751543766
101.61183263526176
102.54304268881089
104.38733350804527
107.84532838457292
113.95694406728632
124.09983996275936
139.86115704340472
162.76286138678316
193.90527010891586
192.59204090500282
161.96247948233716
139.4023295577924
123.91691883146258
114.02327395170613
108.13810117215458
104.87478895550903
103.18515533864198
102.36678017010209
101.99528722341888
101.83693443389016
101.77342442825436
101.74942821066193
101.74094279682255
101.73834974581743
101.73830024660461
101.74039207764751
101.74649356091146
101.76208328385279
101.80025965571156
101.89045987529857
102.09560096975584
102.54304304425277
103.47520327873879
105.32209763180171
108.78695292804856
114.91593939929163
125.10069147257826
140.95745502938226
164.06377384772233
195.6159246416026
192.90358409294447
162.45860382675374
140.12467520162454
124.88576484355005
115.2312485741876
109.55334689666181
106.45127125392241
104.87478691230308
104.12829322470287
103.7982451771451
103.66165867880767
103.60860883721594
103.58923694039204
103.58264330217347
103.5807706038624
103.58097796142232
103.5831573232608
103.5892909193407
103.60490298011216
103.64312339917579
103.7334456261891
103.9389327425379
104.3873370788688
105.3220973330515
107.17578997172438
110.65772713043393
116.82772386763429
127.10593107167213
143.1634466559553
166.6735532456999
198.98097215301053
193.66859223519066
163.62514513282832
141.75168759302943
126.98019444563066
117.74724055447719
112.40911316490518
109.55334408541505
108.1381009816613
107.48704226006117
107.20824752705788
107.09675588807607
107.05497190263767
107.04026565623445
107.0354654957967
107.03423724138264
107.03466402177781
107.03691779121858
107.04308758794578
107.05875034665638
107.09710123782779
107.18778658732286
107.3942691064461
107.84532986731418
108.78695530446267
110.65772666057539
114.1803684059821
120.44266125634557
130.9186906932301
147.37422764159874
171.63081460656227
205.23413677342887
195.40003222710564
166.14963647104025
145.12285843146793
131.14903212050413
122.58386364409212
117.74724378707658
115.231247793117
114.02325999972558
113.48639400786152
113.26473066101154
113.17935200038103
113.14854355467855
113.1381087667246
113.13485816539405
113.1341578590627
113.13475902584082
113.1370813299969
113.14331493525124
113.15912069814813
113.19785837666207
113.28959030494565
113.49883306108234
113.95694555919953
114.91593856607736
116.82771960231092
120.44265694973546
126.90164615893026
137.77193010114772
154.96564431647647
180.50438280180413
216.1590252956721
198.99447686013897
171.15636882858257
151.52579506464843
138.7675490962233
131.14907190645414
126.98020344276001
124.88578094905778
123.9169336812654
123.50271142871217
123.3382925741528
123.2774012913952
123.2562612143987
123.2493740768555
123.24734330331749
123.24704419136305
123.24778451863192
123.25019509284596
123.25658838203779
123.27281053635225
123.31266040369862
123.40729297747593
123.62386943455326
124.09986656321863
125.10071192157064
127.10594653766326
130.91870285586353
137.7719497264971
149.37682239405433
167.8411764844076
195.40712012952227
234.02610474585956
205.8173195777093
180.23374294320305
162.6460607617105
151.52577551358604
145.12288884621057
141.75170915629178
140.1247033645601
139.40236027872737
139.1060014587563
138.99305034765487
138.95283740720544
138.93939960195928
138.9351923931729
138.93404229663454
138.93403323051888
138.93491189534865
138.93750828205992
138.94435372194442
138.96176297067666
139.00467836478919
139.10698906957694
139.34212237810394
139.86118474747872
140.9574740468979
143.16346918585697
147.37424027989903
154.9656577597569
167.8411809739393
188.31910158564773
218.80326730399904
261.2780585527887
217.65480886271595
195.28269129052316
180.2337245485122
171.1563585785729
166.14967112742778
163.62518670638028
162.45859594776988
161.9624816998304
161.76730586523038
161.6958593601468
161.671380458311
161.663495931768
161.6611326413044
161.66058040686076
161.66080534233572
161.66190911281026
161.66499845129152
161.67311446511377
161.69377268531213
161.7447508411512
161.866379013856
162.14598093853343
162.7628952587235
164.06378898048425
166.67356805749603
171.63082368506738
180.50438910998963
195.40713038625773
218.80326269998298
253.04501446846
299.91344817149576
236.80223191172166
217.65478281852518
205.81730781622392
198.99447954574677
195.400024499274
193.66859467270206
192.90359166411375
192.5920589653136
192.4744480512054
192.4330326436681
192.41935169337407
192.41510495754125
192.41391495259285
192.41377603210518
192.4142929345632
192.41594146597586
192.42039308763424
192.4319522441386
192.46108044756863
192.5321825927342
192.6997676737254
193.0797614349725
193.90528702466978
195.6159280796716
198.98096789624105
205.23413256277735
216.15902157845596
234.0260987807946
261.2780370113873
299.9134303577257
349.73059372254613
