# vtk DataFile Version 2.0
Unstructured Grid Example
ASCII
DATASET UNSTRUCTURED_GRID

POINTS 961 float
0.150000006 -0.00839745998 0
0.146666661 -0.00839745998 0
0.143333331 -0.00839745998 0
0.140000001 -0.00839745998 0
0.13666667 -0.00839745998 0
0.13333334 -0.00839745998 0
0.129999995 -0.00839745998 0
0.126666665 -0.00839745998 0
0.123333335 -0.00839745998 0
0.119999997 -0.00839745998 0
0.116666667 -0.00839745998 0
0.113333337 -0.00839745998 0
0.109999999 -0.00839745998 0
0.106666669 -0.00839745998 0
0.103333332 -0.00839745998 0
0.100000001 -0.00839745998 0
0.0966666639 -0.00839745998 0
0.0933333337 -0.00839745998 0
0.0900000036 -0.00839745998 0
0.086666666 -0.00839745998 0
0.0833333358 -0.00839745998 0
0.0799999982 -0.00839745998 0
0.0766666681 -0.00839745998 0
0.0733333305 -0.00839745998 0
0.0700000003 -0.00839745998 0
0.0666666701 -0.00839745998 0
0.0633333325 -0.00839745998 0
0.0599999987 -0.00839745998 0
0.0566666685 -0.00839745998 0
0.0533333346 -0.00839745998 0
0.0500000007 -0.00839745998 0
0.148333326 -0.0112842107 0
0.144999996 -0.0112842107 0
0.141666666 -0.0112842107 0
0.138333336 -0.0112842107 0
0.135000005 -0.0112842107 0
0.13166666 -0.0112842107 0
0.12833333 -0.0112842107 0
0.125 -0.0112842107 0
0.12166667 -0.0112842107 0
0.118333332 -0.0112842107 0
0.115000002 -0.0112842107 0
0.111666664 -0.0112842107 0
0.108333334 -0.0112842107 0
0.104999997 -0.0112842107 0
0.101666667 -0.0112842107 0
0.0983333364 -0.0112842107 0
0.0949999988 -0.0112842107 0
0.0916666687 -0.0112842107 0
0.088333331 -0.0112842107 0
0.0850000009 -0.0112842107 0
0.0816666633 -0.0112842107 0
0.0783333331 -0.0112842107 0
0.075000003 -0.0112842107 0
0.0716666654 -0.0112842107 0
0.0683333352 -0.0112842107 0
0.0649999976 -0.0112842107 0
0.0616666675 -0.0112842107 0
0.0583333336 -0.0112842107 0
0.0549999997 -0.0112842107 0
0.0516666658 -0.0112842107 0
0.0483333319 -0.0112842107 0
0.146666661 -0.0141709624 0
0.143333331 -0.0141709624 0
0.140000001 -0.0141709624 0
0.13666667 -0.0141709624 0
0.13333334 -0.0141709624 0
0.129999995 -0.0141709624 0
0.126666665 -0.0141709624 0
0.123333335 -0.0141709624 0
0.119999997 -0.0141709624 0
0.116666667 -0.0141709624 0
0.113333337 -0.0141709624 0
0.109999999 -0.0141709624 0
0.106666669 -0.0141709624 0
0.103333332 -0.0141709624 0
0.100000001 -0.0141709624 0
0.0966666639 -0.0141709624 0
0.0933333337 -0.0141709624 0
0.0900000036 -0.0141709624 0
0.086666666 -0.0141709624 0
0.0833333358 -0.0141709624 0
0.0799999982 -0.0141709624 0
0.0766666681 -0.0141709624 0
0.0733333305 -0.0141709624 0
0.0700000003 -0.0141709624 0
0.0666666701 -0.0141709624 0
0.0633333325 -0.0141709624 0
0.0599999987 -0.0141709624 0
0.0566666685 -0.0141709624 0
0.0533333346 -0.0141709624 0
0.0500000007 -0.0141709624 0
0.0466666669 -0.0141709624 0
0.144999996 -0.0170577131 0
0.141666666 -0.0170577131 0
0.138333336 -0.0170577131 0
0.135000005 -0.0170577131 0
0.13166666 -0.0170577131 0
0.12833333 -0.0170577131 0
0.125 -0.0170577131 0
0.12166667 -0.0170577131 0
0.118333332 -0.0170577131 0
0.115000002 -0.0170577131 0
0.111666664 -0.0170577131 0
0.108333334 -0.0170577131 0
0.104999997 -0.0170577131 0
0.101666667 -0.0170577131 0
0.0983333364 -0.0170577131 0
0.0949999988 -0.0170577131 0
0.0916666687 -0.0170577131 0
0.088333331 -0.0170577131 0
0.0850000009 -0.0170577131 0
0.0816666633 -0.0170577131 0
0.0783333331 -0.0170577131 0
0.075000003 -0.0170577131 0
0.0716666654 -0.0170577131 0
0.0683333352 -0.0170577131 0
0.0649999976 -0.0170577131 0
0.0616666675 -0.0170577131 0
0.0583333336 -0.0170577131 0
0.0549999997 -0.0170577131 0
0.0516666658 -0.0170577131 0
0.0483333319 -0.0170577131 0
0.0450000018 -0.0170577131 0
0.143333331 -0.0199444648 0
0.140000001 -0.0199444648 0
0.13666667 -0.0199444648 0
0.13333334 -0.0199444648 0
0.129999995 -0.0199444648 0
0.126666665 -0.0199444648 0
0.123333335 -0.0199444648 0
0.119999997 -0.0199444648 0
0.116666667 -0.0199444648 0
0.113333337 -0.0199444648 0
0.109999999 -0.0199444648 0
0.106666669 -0.0199444648 0
0.103333332 -0.0199444648 0
0.100000001 -0.0199444648 0
0.0966666639 -0.0199444648 0
0.0933333337 -0.0199444648 0
0.0900000036 -0.0199444648 0
0.086666666 -0.0199444648 0
0.0833333358 -0.0199444648 0
0.0799999982 -0.0199444648 0
0.0766666681 -0.0199444648 0
0.0733333305 -0.0199444648 0
0.0700000003 -0.0199444648 0
0.0666666701 -0.0199444648 0
0.0633333325 -0.0199444648 0
0.0599999987 -0.0199444648 0
0.0566666685 -0.0199444648 0
0.0533333346 -0.0199444648 0
0.0500000007 -0.0199444648 0
0.0466666669 -0.0199444648 0
0.043333333 -0.0199444648 0
0.141666666 -0.0228312165 0
0.138333336 -0.0228312165 0
0.135000005 -0.0228312165 0
0.13166666 -0.0228312165 0
0.12833333 -0.0228312165 0
0.125 -0.0228312165 0
0.12166667 -0.0228312165 0
0.118333332 -0.0228312165 0
0.115000002 -0.0228312165 0
0.111666664 -0.0228312165 0
0.108333334 -0.0228312165 0
0.104999997 -0.0228312165 0
0.101666667 -0.0228312165 0
0.0983333364 -0.0228312165 0
0.0949999988 -0.0228312165 0
0.0916666687 -0.0228312165 0
0.088333331 -0.0228312165 0
0.0850000009 -0.0228312165 0
0.0816666633 -0.0228312165 0
0.0783333331 -0.0228312165 0
0.075000003 -0.0228312165 0
0.0716666654 -0.0228312165 0
0.0683333352 -0.0228312165 0
0.0649999976 -0.0228312165 0
0.0616666675 -0.0228312165 0
0.0583333336 -0.0228312165 0
0.0549999997 -0.0228312165 0
0.0516666658 -0.0228312165 0
0.0483333319 -0.0228312165 0
0.0450000018 -0.0228312165 0
0.0416666679 -0.0228312165 0
0.140000001 -0.0257179681 0
0.13666667 -0.0257179681 0
0.13333334 -0.0257179681 0
0.129999995 -0.0257179681 0
0.126666665 -0.0257179681 0
0.123333335 -0.0257179681 0
0.119999997 -0.0257179681 0
0.116666667 -0.0257179681 0
0.113333337 -0.0257179681 0
0.109999999 -0.0257179681 0
0.106666669 -0.0257179681 0
0.103333332 -0.0257179681 0
0.100000001 -0.0257179681 0
0.0966666639 -0.0257179681 0
0.0933333337 -0.0257179681 0
0.0900000036 -0.0257179681 0
0.086666666 -0.0257179681 0
0.0833333358 -0.0257179681 0
0.0799999982 -0.0257179681 0
0.0766666681 -0.0257179681 0
0.0733333305 -0.0257179681 0
0.0700000003 -0.0257179681 0
0.0666666701 -0.0257179681 0
0.0633333325 -0.0257179681 0
0.0599999987 -0.0257179681 0
0.0566666685 -0.0257179681 0
0.0533333346 -0.0257179681 0
0.0500000007 -0.0257179681 0
0.0466666669 -0.0257179681 0
0.043333333 -0.0257179681 0
0.0399999991 -0.0257179681 0
0.138333336 -0.0286047198 0
0.135000005 -0.0286047198 0
0.13166666 -0.0286047198 0
0.12833333 -0.0286047198 0
0.125 -0.0286047198 0
0.12166667 -0.0286047198 0
0.118333332 -0.0286047198 0
0.115000002 -0.0286047198 0
0.111666664 -0.0286047198 0
0.108333334 -0.0286047198 0
0.104999997 -0.0286047198 0
0.101666667 -0.0286047198 0
0.0983333364 -0.0286047198 0
0.0949999988 -0.0286047198 0
0.0916666687 -0.0286047198 0
0.088333331 -0.0286047198 0
0.0850000009 -0.0286047198 0
0.0816666633 -0.0286047198 0
0.0783333331 -0.0286047198 0
0.075000003 -0.0286047198 0
0.0716666654 -0.0286047198 0
0.0683333352 -0.0286047198 0
0.0649999976 -0.0286047198 0
0.0616666675 -0.0286047198 0
0.0583333336 -0.0286047198 0
0.0549999997 -0.0286047198 0
0.0516666658 -0.0286047198 0
0.0483333319 -0.0286047198 0
0.0450000018 -0.0286047198 0
0.0416666679 -0.0286047198 0
0.038333334 -0.0286047198 0
0.13666667 -0.0314914696 0
0.13333334 -0.0314914696 0
0.129999995 -0.0314914696 0
0.126666665 -0.0314914696 0
0.123333335 -0.0314914696 0
0.119999997 -0.0314914696 0
0.116666667 -0.0314914696 0
0.113333337 -0.0314914696 0
0.109999999 -0.0314914696 0
0.106666669 -0.0314914696 0
0.103333332 -0.0314914696 0
0.100000001 -0.0314914696 0
0.0966666639 -0.0314914696 0
0.0933333337 -0.0314914696 0
0.0900000036 -0.0314914696 0
0.086666666 -0.0314914696 0
0.0833333358 -0.0314914696 0
0.0799999982 -0.0314914696 0
0.0766666681 -0.0314914696 0
0.0733333305 -0.0314914696 0
0.0700000003 -0.0314914696 0
0.0666666701 -0.0314914696 0
0.0633333325 -0.0314914696 0
0.0599999987 -0.0314914696 0
0.0566666685 -0.0314914696 0
0.0533333346 -0.0314914696 0
0.0500000007 -0.0314914696 0
0.0466666669 -0.0314914696 0
0.043333333 -0.0314914696 0
0.0399999991 -0.0314914696 0
0.0366666652 -0.0314914696 0
0.135000005 -0.0343782231 0
0.13166666 -0.0343782231 0
0.12833333 -0.0343782231 0
0.125 -0.0343782231 0
0.12166667 -0.0343782231 0
0.118333332 -0.0343782231 0
0.115000002 -0.0343782231 0
0.111666664 -0.0343782231 0
0.108333334 -0.0343782231 0
0.104999997 -0.0343782231 0
0.101666667 -0.0343782231 0
0.0983333364 -0.0343782231 0
0.0949999988 -0.0343782231 0
0.0916666687 -0.0343782231 0
0.088333331 -0.0343782231 0
0.0850000009 -0.0343782231 0
0.0816666633 -0.0343782231 0
0.0783333331 -0.0343782231 0
0.075000003 -0.0343782231 0
0.0716666654 -0.0343782231 0
0.0683333352 -0.0343782231 0
0.0649999976 -0.0343782231 0
0.0616666675 -0.0343782231 0
0.0583333336 -0.0343782231 0
0.0549999997 -0.0343782231 0
0.0516666658 -0.0343782231 0
0.0483333319 -0.0343782231 0
0.0450000018 -0.0343782231 0
0.0416666679 -0.0343782231 0
0.038333334 -0.0343782231 0
0.0350000001 -0.0343782231 0
0.13333334 -0.0372649729 0
0.129999995 -0.0372649729 0
0.126666665 -0.0372649729 0
0.123333335 -0.0372649729 0
0.119999997 -0.0372649729 0
0.116666667 -0.0372649729 0
0.113333337 -0.0372649729 0
0.109999999 -0.0372649729 0
0.106666669 -0.0372649729 0
0.103333332 -0.0372649729 0
0.100000001 -0.0372649729 0
0.0966666639 -0.0372649729 0
0.0933333337 -0.0372649729 0
0.0900000036 -0.0372649729 0
0.086666666 -0.0372649729 0
0.0833333358 -0.0372649729 0
0.0799999982 -0.0372649729 0
0.0766666681 -0.0372649729 0
0.0733333305 -0.0372649729 0
0.0700000003 -0.0372649729 0
0.0666666701 -0.0372649729 0
0.0633333325 -0.0372649729 0
0.0599999987 -0.0372649729 0
0.0566666685 -0.0372649729 0
0.0533333346 -0.0372649729 0
0.0500000007 -0.0372649729 0
0.0466666669 -0.0372649729 0
0.043333333 -0.0372649729 0
0.0399999991 -0.0372649729 0
0.0366666652 -0.0372649729 0
0.0333333351 -0.0372649729 0
0.13166666 -0.0401517227 0
0.12833333 -0.0401517227 0
0.125 -0.0401517227 0
0.12166667 -0.0401517227 0
0.118333332 -0.0401517227 0
0.115000002 -0.0401517227 0
0.111666664 -0.0401517227 0
[...]
POINT_DATA 961
SCALARS Temp float 1
LOOKUP_TABLE default
236.2872275648306
191.02038060814752
166.4236130519634
155.91480105535814
152.02314742579236
150.71390996920053
150.30093862440376
150.17646705192962
150.1402044516326
150.1299145296231
150.1270537103512
150.1262755597357
150.12606576006317
150.1260097405975
150.12599679229172
150.1259903906823
150.1259895556207
150.12598764276504
150.12598988581794
150.12599032246808
150.12599286071054
150.1260089781699
150.12609070907558
150.12657614615875
150.12929844381952
150.14410680293489
150.2210841399003
150.59626005403527
152.24702932603455
158.33325315297193
176.11243404209017
191.02039828852713
151.96452036586876
133.61617544219632
126.2452130617531
123.61979068768304
122.75709917670507
122.48904211899195
122.40908794882775
122.38597271752273
122.37945268782325
122.37765056962317
122.37715963617092
122.37702797702393
122.37699331005156
122.3769822476217
122.37698147656545
122.37698126606817
122.37698174119897
122.37698119809971
122.3769822264635
122.37698880687773
122.37702430112651
122.37724201408182
122.37845830257498
122.38508857647567
122.4197663967878
122.59083319195938
123.36364573762987
126.39609688695161
136.0329926243228
158.33326667900818
166.42359467382514
133.61617435087427
118.15862843105039
111.96324736730024
109.7470514782466
109.01414426247949
108.7849878827659
108.71626605764769
108.69630766445144
108.69065669712623
108.68909097561064
108.68866382846487
108.68854897335403
108.68851856964285
108.68851089481402
108.68850824775012
108.6885070417689
108.6885079622496
108.68850833800248
108.6885109238783
108.68852614967096
108.6886142082848
108.6891038148213
108.69175923692347
108.70558325663123
108.77362227193497
109.0829409137103
110.33314003678232
114.61415311627724
126.39608773878456
152.24703045420387
155.9147883146355
126.24521572663518
111.96325407027858
106.15565611041701
104.0582511987129
103.35987925497534
103.1404257364161
103.07436733379349
103.05512917330293
103.04967139056538
103.04815503489442
103.04774111755358
103.04762978478382
103.04759986359343
103.04759249312401
103.04759045789564
103.04759024765126
103.04759006254338
103.04759100301523
103.0475967601529
103.04762939375848
103.04781240041632
103.04879139833258
103.05383243310487
103.07842904634975
103.18999204893063
103.64745502216742
105.29103699112754
110.33314483618635
123.36365462206679
150.59625469387552
152.02314636140258
123.61979532413527
109.74705675119732
104.05826020759565
101.99356871392659
101.30398538586168
101.08685611967424
101.02140657262075
101.00232702609887
100.99691017902579
100.9954046296909
100.9949934785083
100.99488285294954
100.99485355993829
100.99484571588472
100.99484361955759
100.99484331806758
100.99484353480574
100.99484556597218
100.99485723641547
100.994921289684
100.99525942599995
100.99697793819094
101.00526910246023
101.04264972506625
101.1969884769583
101.76893832115674
103.64745333875342
109.08293995053931
122.59083077290931
150.22109038633906
150.71390643013447
122.75710969100025
109.01415326358563
103.35987220430764
101.30398330693681
100.61659920124991
100.400018477404
100.33470607333776
100.31566107364308
100.31025264152221
100.30874927734921
100.30833869589934
100.30822817075011
100.30819885720398
100.30819113649686
100.30818919295815
100.30818876581357
100.30818933916512
100.30819324819771
100.30821448829309
100.3083255284574
100.30888157129199
100.31153135389542
100.32338983890483
100.37249874358376
100.55830322915702
101.19698834601891
103.18999254218335
108.77362596759703
122.41975338981307
150.14409825886437
150.3009343711949
122.4890494864074
108.7850027060872
103.14041554202076
101.08685392201382
100.40001824101584
100.18356666849954
100.11828534204552
100.09924771052707
100.09384110424371
100.09233819236115
100.09192772105013
100.09181727226046
100.09178790348345
100.09178018449406
100.09177823236813
100.09177794524297
100.09177908964831
100.09178585204543
100.09182079086298
100.09199331284513
100.09280549803675
100.09641249794134
100.1113640894903
100.16876140870268
100.3724985949572
101.04264907201798
103.07842742213512
108.7055806627353
122.38508588251929
150.12930777525628
150.17647193119774
122.4090957579672
108.71624142285141
103.0743589003623
101.02140544831752
100.33470647944843
100.11828530231323
100.05301096702907
100.03397487849118
100.02856867090462
100.02706584861033
100.02665539666737
100.02654494435356
100.02651559154033
100.02650789234241
100.02650595311891
100.02650583382857
100.02650779728062
100.02651838137642
100.02657012021079
100.0268108635615
100.0278720776308
100.03227047009176
100.04933545298962
100.11136405105307
100.32338980993231
101.00526911582617
103.05383244102173
108.6917538635156
122.378443986054
150.12656646613112
150.14019621056624
122.38598682900623
108.69628039234969
103.05512328484727
101.00232703945204
100.31566080924517
100.09924774274721
100.03397495272898
100.0149391910418
100.0095330694255
100.00803026377368
100.00761982079678
100.0075093640062
100.00748001315608
100.00747232008581
100.00747043161434
100.00747054043146
100.00747354453165
100.00748859811394
100.00755801773732
100.00786193348995
100.00912078867978
100.01404451456318
100.0322704937206
100.09641247267082
100.31153123520774
100.99697783671671
103.04879004420495
108.68910497684745
122.37724538598079
150.12610579391455
150.12992099501184
122.3793977621828
108.69064525508001
103.04967085528418
100.99691225187296
100.31025272661064
100.09384127462766
100.02856868392395
100.00953306743367
100.0041269517765
100.00262415450858
100.00221371119052
100.00210325615912
100.0020739091378
100.00206622751979
100.00206440101606
100.00206478612496
100.00206894835485
100.00208848606259
100.00217360497513
100.0025259153925
100.00391271184205
100.0091207818009
100.02787206540874
100.09280550297997
100.3088815716372
100.9952594942747
103.04780870371317
108.68860744887277
122.37701268061306
150.12599870666108
150.12709926976962
122.37761339965472
108.68908894362254
103.04815763855521
100.99540452393839
100.30874952525915
100.09233842207851
100.02706584584723
100.0080302710364
100.00262415395098
100.00112135892692
100.00071091519656
100.0006004614265
100.00057111772183
100.00056345286592
100.0005616982248
100.00056237788218
100.00056765683237
100.00059102817183
100.00068780341412
100.00107075412599
100.00252591731494
100.00786193605384
100.02681085277243
100.09199327784252
100.3083254423598
100.99492068904564
103.04762908120665
108.68852813261799
122.37699624844805
150.12598295604278
150.12623811462856
122.37714726405439
108.6886682195818
103.04774629029964
100.99499307201599
100.30833894669287
100.09192766039651
100.02665539986862
100.00761980613814
100.00221371123479
100.00071091600944
100.0003004722171
100.00019001981369
100.00016068048052
100.00015303425145
100.00015135344664
100.00015230672489
100.00015850841514
100.0001846489889
100.00028866100934
100.00068780449959
100.00217360658318
100.00755801398425
100.02657013750671
100.09182084547048
100.30821479673317
100.99485677726061
103.0475955782061
108.68851160140396
122.37698228209057
150.12600249144992
150.12605927657034
122.37703653795289
108.68856015834588
103.04762883431786
100.99488317371531
100.3082288031717
100.09181721057284
100.02654498274755
100.00750935419126
100.00210325797472
100.00060046091713
100.00019001959657
100.0000795692355
100.00005023559311
100.0000426085339
100.00004099464859
100.000042167851
100.00004902003815
100.00007684998369
100.00018464863098
100.00059102795397
100.0020884882163
100.0074885870223
100.026518374836
100.09178583088563
100.30819310842539
100.99484539372739
103.04759065471062
108.68851090916489
122.37696333388236
150.1259897367487
150.12600231180906
122.37699853664323
108.6885307405489
103.04759730720939
100.99485361759301
100.3081985227988
100.09178788444316
100.02651556485283
100.00748000812787
100.00207391237507
100.00057111680778
100.00016068037388
100.00005023556879
100.00002091084764
100.00001330326569
100.00001174369582
100.00001306977825
100.00002031335805
100.00004901999911
100.00015850850858
100.00056765661013
100.00206894943521
100.00747354336795
100.02650781854567
100.0917791740999
100.30818919896116
100.99484310980606
103.04758893429276
108.68850688090134
122.3769840519791
150.1259882688924
150.12599862434695
122.37699614239193
108.68850484763793
103.04759156060265
100.99484714806384
100.30819094560394
100.09178032427415
100.02650787524004
100.00747231868577
100.00206622697236
100.00056345265527
100.00015303438185
100.00004260850568
100.00001330327665
100.00000571967406
100.00000420286047
100.00000562297232
100.00001306976505
100.00004216779685
100.00015230656525
100.0005623779735
100.00206478531743
100.0074705313798
100.02650582848321
100.09177789934827
100.30818870974215
100.99484317054292
103.0475899468176
108.6885013124166
122.37697886228018
150.1259850331906
150.12598601880438
122.37699364423314
108.68849959454644
103.0475901274266
100.99484266170569
100.30818910726198
100.091778135828
100.02650595152542
100.0074704364316
100.00206439950507
100.00056169822854
100.00015135314844
100.00004099464523
100.00001174367667
100.00000420286003
100.00000272671664
100.00000420286325
100.00001174368026
100.0000409947149
100.00015135328036
100.00056169792194
100.00206440257176
100.0074704311962
100.02650597812173
100.09177818441577
100.30818902984242
100.99484345958987
103.0475892953572
108.68851134020522
122.37697584024397
150.1259948660008
150.12599684459104
122.37695953009123
108.6885083285392
103.04759427559785
100.99484281502674
100.30818917641486
100.09177788892431
100.02650584781057
100.00747053089066
100.00206478724483
100.00056237887624
100.00015230651519
100.00004216791721
100.00001306976667
100.00000562297522
100.00000420286618
100.00000571968002
100.00001330325172
100.0000426085277
100.00015303414392
100.0005634521056
100.00206622682803
100.00747231183432
100.02650787508304
100.09178018180921
100.30819113246207
100.99484588027616
103.0475891114661
108.68850966298628
122.3769730125874
150.12598911255392
150.12601332727553
122.37696714441796
108.68851228038129
103.04758723528671
100.99484333911637
100.30818898037896
100.09177906665707
100.02650783340773
100.0074735323909
100.00206895063239
100.00056765616148
100.00015850826115
100.00004901998786
100.00002031334695
100.00001306978444
100.00001174370054
100.00001330326745
100.00002091086634
100.00005023560335
100.00016068027382
100.00057111756414
100.00207391051124
100.00748001494826
100.0265155792611
100.09178787216484
100.30819879510801
100.99485309828712
103.0476001858996
108.68851501320003
122.37698711766141
150.12600955931407
150.1259672862875
122.37697727925452
108.68851771599552
103.0475872805564
100.99484585472746
100.30819278372651
100.0917858195884
100.02651835331436
100.00748858871297
100.00208849001515
100.00059102735706
100.0001846489532
100.0000768499552
100.00004902002512
100.00004216784657
100.00004099464604
100.00004260852977
100.00005023561437
100.00007956919659
100.00019001955239
100.00060046125486
100.0021032575686
100.00750936026107
100.02654496224001
100.09181733351924
100.30822850651558
100.99488239055692
103.04763012523519
108.68854852497995
122.37702644301783
150.12607169510255
150.1259893987284
122.37699272672467
108.68850477487177
103.04759535134983
100.99485589769488
100.30821444709385
100.09182090458397
100.0265701034405
100.00755801916
100.00217360520607
100.00068780366863
100.00028866097061
100.0001846489407
100.0001585084355
100.00015230677684
100.00015135345203
100.00015303425201
100.00016068049604
100.00019001976653
100.00030047240763
100.00071091546549
100.00221371317588
100.0076198100018
100.02665539159983
100.09192770199081
100.3083385628705
100.99499337628825
103.04773817097984
108.68865963849468
122.37715055839668
150.12627330866508
150.12598888390195
122.37700156685578
108.68851644726058
103.04762980433789
100.99491972973613
100.30832545002323
100.09199321684096
100.02681086142846
100.00786194290816
100.00252591532717
100.0010707553296
100.00068780346876
100.00059102813564
100.00056765676788
100.00056237783792
100.00056169824065
100.00056345298405
100.00057111766546
100.00060046144318
100.00071091529945
100.00112135876707
100.00262415551782
100.00803026309535
100.02706586990895
100.09233827165336
100.30874909617637
100.99540459286375
103.04815332380653
108.68908990294604
122.37764907922264
150.1270507956227
150.12599599853812
122.37698918261265
108.68860635130042
103.04780649979965
100.99525860959062
100.30888180216448
100.09280539679106
100.02787208446104
100.00912077768794
100.00391270917116
100.00252591514202
100.00217360466714
100.00208848611325
100.00206894905966
100.00206478620676
100.0020644009671
100.00206622760149
100.0020739089186
100.00210325621313
100.00221371107493
100.00262415522062
100.00412695220919
100.00953306195167
100.02856868304787
100.0938411216119
100.31025282492128
100.99690982840617
103.04967065808636
108.6906602991645
122.37945934054235
150.12992996936202
150.12612592512798
122.37723469046702
108.68911410326011
103.04879004662315
100.99697870594855
100.31153128364606
100.09641258402642
100.0322705499479
100.01404452642717
100.00912080761266
100.00786194932041
100.00755803133565
100.00748861095022
100.00747355757069
100.00747055423875
100.00747044661335
100.0074723330417
100.0074800271685
100.00750937788312
100.00761983389074
100.00803027794531
100.00953307854206
100.01493920323477
100.03397489571765
100.09924757585198
100.31566082099971
101.00232599221663
103.05512601246289
108.69630314870669
122.38595322472206
150.14019050370595
150.1265626011989
122.37846169923944
108.69175509886209
103.05383220985631
101.00527052831337
100.32338972907014
100.11136422198373
100.04933550765527
100.03227051459096
100.02787212432364
100.02681090920899
100.02657016878368
100.02651843860215
100.02650784693154
100.02650588173863
100.02650600227965
100.02650793845382
100.02651564030414
100.02654499344705
100.02665544827116
100.02706589579434
100.02856871695609
100.03397492292112
100.0530109557342
100.11828538621418
100.33470585311254
101.02140591606134
103.07436550385911
108.71626451975682
122.4090853514053
150.17646532746028
150.12929434634216
122.3851014399602
108.70557797897976
103.07842879033366
101.04264886560884
100.3724988809266
100.16876159868741
100.111364156294
100.0964125940259
100.09280560587804
100.09199339584215
100.09182086589779
100.09178592795391
100.09177917412423
100.09177804262477
100.09177830713708
100.09178027262902
100.0917879898791
100.09181735154715
100.09192781163068
100.09233827615039
100.09384119012994
100.09924777229514
100.11828541762537
100.18356688368513
100.40001837627453
101.0868558991436
103.1404257260122
108.78498649110479
122.489039399588
150.30093610124845
150.1441028704056
122.41974182925391
108.77361976544178
103.18999450772782
101.19698747139145
100.55830345007617
100.37249876612103
100.32338983230201
100.31153133669906
100.30888154705949
100.30832553882578
100.30821459034722
100.3081932688709
100.30818934047468
100.30818877688127
100.30818918049417
100.30819115083474
100.30819887408745
100.30822821282221
100.30833869459104
100.3087492992365
100.31025267579935
100.31566105042197
100.33470613476067
100.40001840779439
100.61659968624711
101.30398629024829
103.35988129292637
109.0141472637089
122.75709864856468
150.71390647350628
150.22109016840014
122.59081212386555
109.08293834471198
103.64745047320402
101.76893774105017
101.19698791441373
101.04264883547148
101.00526832679081
100.9969773744857
100.9952586430172
100.9949204467085
100.9948563657822
100.99484477904137
100.99484286631426
100.9948424493643
100.99484289125195
100.9948449597386
100.99485273762825
100.99488212037228
100.99499270384649
100.99540385765371
100.9969093145164
101.00232637321919
101.02140588423491
101.08685529357483
101.30398547213441
101.99357162770967
104.05825218275388
109.7470483534392
123.61978905709253
152.02315673726807
150.59625997362247
123.36365809299967
110.33315904854688
105.29104087677918
103.64746028873435
103.18999679992508
103.07843344265702
103.05383663801655
103.04879548797221
103.0478168638298
103.0476345341187
103.04760123222586
103.04759532717522
103.04759442720888
103.0475945418071
103.04759491277501
103.04759695042604
103.04760452219575
103.04763407580046
103.04774562011508
103.04815960568469
103.04967561614349
103.055133537987
103.07437166315158
103.14043040729986
103.35988507803387
104.05825706993284
106.15565211912464
111.96323999877349
126.2451925233488
155.91478702638105
152.2470359522599
126.39610913176762
114.61416164713046
110.33315034445779
109.082950799644
108.77363075981812
108.70559217339621
108.69176955555858
108.68911304298324
108.68862310355868
108.68853440167294
108.68851985755936
108.68851801087575
108.68851656016349
108.68851655853925
108.68851744988649
108.68851973892558
108.68852777785479
108.68855810622424
108.68867292047227
108.68909950728263
108.69066655905034
108.69631690072121
108.71627446407847
108.78499765944527
109.01415344964191
109.74705510014952
111.96324786546896
118.15862127306487
133.61616369241105
166.42360812355554
158.33326589408628
136.03301213150368
126.39610097169437
123.36365364020064
122.59084101042882
122.41977307816789
122.38509448455785
122.37846336696677
122.37724964770162
122.37703395416658
122.37699569681702
122.37698857801533
122.37698746431904
122.37698859584833
122.37698812122524
122.37698846483208
122.37699001315266
122.37699940813917
122.37703522475292
122.37716690753302
122.37765691639295
122.37945897028592
122.3859796987224
122.40909633787878
122.48905136481652
122.75710547688385
123.61979130257453
126.24521113392932
133.61616638910428
151.9645156767405
191.02036537333612
176.1124473055049
158.33324919674035
152.2470307846831
150.59626250198966
150.22108253654798
150.14410699674545
150.12930059249297
150.12657926939937
150.12609238219844
150.12600556499913
150.12599290307034
150.1259916197607
150.12599056585546
150.12598941270554
150.12599047140492
150.12599124798354
150.12599621906338
150.12601138010172
150.1260662237897
150.1262749724309
150.1270558260451
150.12991590445472
150.14020579024327
150.17646833891405
150.3009341275414
150.71390612803518
152.0231477040589
155.91479238550886
166.4235980120441
191.02035138476538
236.28693011593165
